                  Welcome to Q-Chem
     A Quantum Leap Into The Future Of Chemistry


 Q-Chem 6.0 (devel), Q-Chem, Inc., Pleasanton, CA (2022)

 E. Epifanovsky,  A. T. B. Gilbert,  Xintian Feng,  Joonho Lee,  Yuezhi Mao,  
 N. Mardirossian,  P. Pokhilko,  A. White,  M. Wormit,  M. P. Coons,  
 A. L. Dempwolff,  Zhengting Gan,  D. Hait,  P. R. Horn,  L. D. Jacobson,  
 I. Kaliman,  J. Kussmann,  A. W. Lange,  Ka Un Lao,  D. S. Levine,  Jie Liu,  
 S. C. McKenzie,  A. F. Morrison,  K. Nanda,  F. Plasser,  D. R. Rehn,  
 M. L. Vidal,  Zhi-Qiang You,  Ying Zhu,  B. Alam,  B. Albrecht,  
 A. Aldossary,  E. Alguire,  J. H. Andersen,  V. Athavale,  D. Barton,  
 K. Begam,  A. Behn,  N. Bellonzi,  Y. A. Bernard,  E. J. Berquist,  
 H. Burton,  A. Carreras,  K. Carter-Fenk,  Romit Chakraborty,  
 Chandrima Chakravarty,  Junhan Chen,  A. D. Chien,  K. D. Closser,  
 V. Cofer-Shabica,  L. Cunha,  S. Dasgupta,  Jia Deng,  M. de Wergifosse,  
 M. Diedenhofen,  Hainam Do,  S. Ehlert,  Po-Tung Fang,  S. Fatehi,  
 Qingguo Feng,  T. Friedhoff,  B. Ganoe,  J. Gayvert,  Qinghui Ge,  
 G. Gidofalvi,  M. Goldey,  J. Gomes,  C. Gonzalez-Espinoza,  S. Gulania,  
 A. Gunina,  J. A. Gyamfi,  M. W. D. Hanson-Heine,  P. H. P. Harbach,  
 A. W. Hauser,  M. F. Herbst,  M. Hernandez Vera,  M. Hodecker,  
 Z. C. Holden,  S. Houck,  Xunkun Huang,  Kerwin Hui,  B. C. Huynh,  
 K. Ikeda,  M. Ivanov,  Hyunjun Ji,  Zuxin Jin,  Hanjie Jiang,  B. Kaduk,  
 S. Kaehler,  R. Kang,  K. Khistyaev,  Jaehoon Kim,  Yongbin Kim,  
 P. Klunzinger,  Z. Koczor-Benda,  Joong Hoon Koh,  D. Kosenkov,  
 Saikiran Kotaru,  L. Koulias,  T. Kowalczyk,  C. M. Krauter,  K. Kue,  
 A. Kunitsa,  T. Kus,  A. Landau,  K. V. Lawler,  D. Lefrancois,  S. Lehtola,  
 Rain Li,  Shaozhi Li,  Yi-Pei Li,  Jiashu Liang,  M. Liebenthal,  
 Hung-Hsuan Lin,  You-Sheng Lin,  Fenglai Liu,  Kuan-Yu Liu,  
 M. Loipersberger,  A. Luenser,  C. Malbon,  A. Manjanath,  P. Manohar,  
 E. Mansoor,  S. F. Manzer,  Shan-Ping Mao,  A. V. Marenich,  T. Markovich,  
 S. Mason,  F. Matz,  S. A. Maurer,  P. F. McLaughlin,  M. F. S. J. Menger,  
 J.-M. Mewes,  S. A. Mewes,  P. Morgante,  Mohammad Mostafanejad,  
 J. W. Mullinax,  K. J. Oosterbaan,  G. Paran,  V. Parravicini,  
 Alexander C. Paul,  Suranjan K. Paul,  F. Pavosevic,  Zheng Pei,  S. Prager,  
 E. I. Proynov,  E. Ramos,  B. Rana,  A. E. Rask,  A. Rettig,  R. M. Richard,  
 F. Rob,  E. Rossomme,  T. Scheele,  M. Scheurer,  M. Schneider,  
 P. E. Schneider,  N. Sergueev,  S. M. Sharada,  Hengyuan Shen,  
 W. Skomorowski,  D. W. Small,  C. J. Stein,  Yingli Su,  Yu-Chuan Su,  
 E. J. Sundstrom,  Zhen Tao,  J. Thirman,  Hung-Yi Tsai,  T. Tsuchimochi,  
 N. M. Tubman,  C. Utku,  S. P. Veccham,  O. Vydrov,  J. Wenzel,  
 Jonathan Wong,  J. Witte,  A. Yamada,  Chou-Hsun Yang,  Kun Yao,  
 S. Yeganeh,  S. R. Yost,  A. Zech,  F. Zeller,  Igor Ying Zhang,  
 Xing Zhang,  Yu Zhang,  D. Zuev,  A. Aspuru-Guzik,  A. T. Bell,  
 N. A. Besley,  K. B. Bravaya,  B. R. Brooks,  D. Casanova,  Jeng-Da Chai,  
 Hsing-Ta Chen,  S. Coriani,  C. J. Cramer,  A. E. DePrince, III,  
 R. A. DiStasio Jr.,  A. Dreuw,  B. D. Dunietz,  T. R. Furlani,  
 W. A. Goddard III,  S. Grimme,  S. Hammes-Schiffer,  T. Head-Gordon,  
 W. J. Hehre,  Chao-Ping Hsu,  T.-C. Jagau,  Yousung Jung,  A. Klamt,  
 Jing Kong,  D. S. Lambrecht,  Xiangyuan Li,  WanZhen Liang,  N. J. Mayhall,  
 C. W. McCurdy,  J. B. Neaton,  T. Neudecker,  C. Ochsenfeld,  
 J. A. Parkhill,  R. Peverati,  V. A. Rassolov,  Haisheng Ren,  Yihan Shao,  
 L. V. Slipchenko,  R. P. Steele,  J. E. Subotnik,  A. J. W. Thom,  
 A. Tkatchenko,  D. G. Truhlar,  T. Van Voorhis,  Fan Wang,  
 T. A. Wesolowski,  K. B. Whaley,  H. L. Woodcock III,  P. M. Zimmerman,  
 S. Faraji,  P. M. W. Gill,  M. Head-Gordon,  J. M. Herbert,  A. I. Krylov

 Contributors to earlier versions of Q-Chem not listed above: 
 R. D. Adamson,  B. Austin,  R. Baer,  J. Baker,  G. J. O. Beran,  
 K. Brandhorst,  S. T. Brown,  E. F. C. Byrd,  Arup K. Chakraborty,  
 G. K. L. Chan,  Chun-Min Chang,  Yunqing Chen,  C.-L. Cheng,  
 Siu Hung Chien,  D. M. Chipman,  D. L. Crittenden,  H. Dachsel,  
 R. J. Doerksen,  A. D. Dutoi,  R. G. Edgar,  J. Fosso-Tande,  
 L. Fusti-Molnar,  D. Ghosh,  A. Ghysels,  A. Golubeva-Zadorozhnaya,  
 J. Gonthier,  M. S. Gordon,  S. R. Gwaltney,  G. Hawkins,  J. E. Herr,  
 A. Heyden,  S. Hirata,  E. G. Hohenstein,  G. Kedziora,  F. J. Keil,  
 C. Kelley,  Jihan Kim,  R. A. King,  R. Z. Khaliullin,  P. P. Korambath,  
 W. Kurlancheek,  A. Laurent,  A. M. Lee,  M. S. Lee,  S. V. Levchenko,  
 Ching Yeh Lin,  D. Liotard,  E. Livshits,  R. C. Lochan,  I. Lotan,  
 L. A. Martinez-Martinez,  P. E. Maslen,  N. Nair,  D. P. O'Neill,  
 D. Neuhauser,  E. Neuscamman,  C. M. Oana,  R. Olivares-Amaya,  R. Olson,  
 T. M. Perrine,  B. Peters,  P. A. Pieniazek,  A. Prociuk,  Y. M. Rhee,  
 J. Ritchie,  M. A. Rohrdanz,  E. Rosta,  N. J. Russ,  H. F. Schaefer III,  
 M. W. Schmidt,  N. E. Schultz,  S. Sharma,  N. Shenvi,  C. D. Sherrill,  
 A. C. Simmonett,  A. Sodt,  T. Stein,  D. Stuck,  K. S. Thanthiriwatte,  
 V. Vanovschi,  L. Vogt,  Tao Wang,  A. Warshel,  M. A. Watson,  
 C. F. Williams,  Q. Wu,  X. Xu,  Jun Yang,  W. Zhang,  Yan Zhao

   Please cite Q-Chem as follows:
  "Software for the frontiers of quantum chemistry:
   An overview of developments in the Q-Chem 5 package"
   J. Chem. Phys. 155, 084801 (2021)
   https://doi.org/10.1063/5.0055522 (open access)

 Q-Chem 6.0.2 for Intel X86 EM64T Linux

 Parts of Q-Chem use Armadillo 9.900.5 (Nocturnal Misbehaviour).
 http://arma.sourceforge.net/

 Q-Chem begins on Tue Apr 25 18:49:54 2023  

 Host: login13
0

     Scratch files written to /pscratch/sd/j/jsliang/QC_scratch/qchem127486//
 Processing $rem in /global/cfs/cdirs/mp54/qchem602//config/preferences:
 Processing $rem in /global/homes/j/jsliang/.qchemrc:

 Checking the input file for inconsistencies... 	...done.

--------------------------------------------------------------
User input:
--------------------------------------------------------------
$molecule
0 1
C       1.266     0.000      0.0
C      -1.266    -0.000      0.0
H       2.305     1.800      0.0
H       2.305    -1.800      0.0
H      -2.305     1.800      0.0
H      -2.305    -1.800      0.0
$end


$rem
input_bohr true
method hf
basis 6-311G

MAX_SCF_CYCLES 50
THRESH  14
SCF_CONVERGENCE  6

SYM_IGNORE true
SYMMETRY FALSE

IPRINT 4
SCF_FINAL_PRINT 4
ham_debug_print = 4
print_xc_time 4
PRINT_SCF_TIME 4
$end
--------------------------------------------------------------
 ----------------------------------------------------------------
             Standard Nuclear Orientation (Bohr)
    I     Atom           X                Y                Z
 ----------------------------------------------------------------
    1      C       1.2660000000     0.0000000000     0.0000000000
    2      C      -1.2660000000    -0.0000000000     0.0000000000
    3      H       2.3050000000     1.8000000000     0.0000000000
    4      H       2.3050000000    -1.8000000000     0.0000000000
    5      H      -2.3050000000     1.8000000000     0.0000000000
    6      H      -2.3050000000    -1.8000000000     0.0000000000
 ----------------------------------------------------------------
 Nuclear Repulsion Energy =          33.09847529 hartrees
 There are        8 alpha and        8 beta electrons
 Requested basis set is 6-311G
 There are 20 shells and 38 basis functions

 Total QAlloc Memory Limit   2000 MB
 Mega-Array Size       188 MB
 MEM_STATIC part       192 MB


                       Distance Matrix (Bohrs)
             C (  1)   C (  2)   H (  3)   H (  4)   H (  5)
   C (  2)  2.532000
   H (  3)  2.078346  3.999005
   H (  4)  2.078346  3.999005  3.600000
   H (  5)  3.999005  2.078346  4.610000  5.849111
   H (  6)  3.999005  2.078346  5.849111  4.610000  3.600000

 A cutoff of  1.0D-14 yielded    210 shell pairs
 There are       777 function pairs
 Smallest overlap matrix eigenvalue = 6.33E-03

 Scale SEOQF with 1.000000e+00/1.000000e+00/1.000000e+00

 Standard Electronic Orientation quadrupole field applied
 Nucleus-field energy     =     0.0000000066 hartrees
 Guess from superposition of atomic densities
 Warning:  Energy on first SCF cycle will be non-variational
 SAD guess density has 16.000000 electrons

 -----------------------------------------------------------------------
  General SCF calculation program by
  Eric Jon Sundstrom, Paul Horn, Yuezhi Mao, Dmitri Zuev, Alec White,
  David Stuck, Shaama M.S., Shane Yost, Joonho Lee, David Small,
  Daniel Levine, Susi Lehtola, Hugh Burton, Evgeny Epifanovsky,
  Bang C. Huynh
 -----------------------------------------------------------------------
 Hartree-Fock
 Number of OpenMP threads: 1
 List of terms in Hamiltonian: inc_jk, qchem_hcore
 Prioritized algorithm options for all energy terms with memory requirement: 
  inc_jk:
   name: qchem, static memory required: 0, dynamic memory required: 0
   name: libfock, static memory required: 5040, dynamic memory required: 13760680
  qchem_hcore:
   name: qchem, static memory required: 0, dynamic memory required: 0

 Final selected algorithms for all energy terms:
  inc_jk: qchem
  qchem_hcore: qchem
 A restricted SCF calculation will be
 performed using DIIS
 SCF converges when DIIS error is below 1.0e-06
 ---------------------------------------
  Cycle       Energy         DIIS error
 ---------------------------------------
    1     -78.3861233366      1.26e-01  
    2     -77.9981964428      8.03e-03  
    3     -78.0149012909      1.89e-03  
    4     -78.0160320439      6.00e-04  
    5     -78.0161182080      8.42e-05  
    6     -78.0161213239      1.33e-05  
    7     -78.0161214165      1.87e-06  
    8     -78.0161214180      1.34e-07  Convergence criterion met
 ---------------------------------------
 DFT Correlation    Energy =   0.00000000000000
 DFT Exchange       Energy =   0.00000000000000
 HF Exchange        Energy = -11.67427936950771
 Kinetic            Energy =   0.00000000000000
 Nuclear Attraction Energy =   0.00000000000000
 One-Electron       Energy = -169.42348563184083
 Total Coulomb      Energy =  69.98316829134274
 Final Alpha MO Eigenvalues
            1           2           3           4           5           6
    1 -11.2411293 -11.2394892  -1.0369308  -0.7821799  -0.6462190  -0.5781571
            7           8           9          10          11          12
    1  -0.5033452  -0.3754013   0.1573477   0.1682651   0.1937312   0.1994025
           13          14          15          16          17          18
    1   0.2618081   0.4381978   0.4457064   0.4851283   0.5628125   0.5888766
           19          20          21          22          23          24
    1   0.5947322   0.7170503   0.7797846   0.8441529   0.9001874   0.9122817
           25          26          27          28          29          30
    1   0.9382555   1.1137811   2.4652911   2.5418016   2.5752608   2.6566135
           31          32          33          34          35          36
    1   2.9644931   3.1078596   3.1472710   3.2587403   3.4471140   3.6451991
           37          38
    1  24.3727287  24.7293312
 Final Alpha MO Coefficients
            1           2           3           4           5           6
    1   0.3982655   0.3984238  -0.0835785  -0.0643620   0.0000000   0.0046597
    2   0.3298034   0.3300759  -0.1401819  -0.1094513   0.0000000   0.0076769
    3  -0.0001690   0.0001612  -0.0544783   0.0691748   0.0000000   0.1812590
    4  -0.0000000   0.0000000  -0.0000000  -0.0000000  -0.1383771   0.0000000
    5  -0.0000000  -0.0000000   0.0000000   0.0000000  -0.0000000  -0.0000000
    6   0.0032557   0.0026761   0.3700684   0.2915405  -0.0000000  -0.0286244
    7  -0.0003254   0.0001022  -0.0781696   0.1192341   0.0000000   0.2903007
    8   0.0000000   0.0000000   0.0000000   0.0000000  -0.2339158   0.0000000
    9   0.0000000   0.0000000  -0.0000000  -0.0000000  -0.0000000  -0.0000000
   10  -0.0003982  -0.0014640   0.1935370   0.2436255   0.0000000   0.0383681
   11   0.0000825   0.0004112  -0.0072231   0.0412309  -0.0000000   0.1359561
   12  -0.0000000  -0.0000000   0.0000000  -0.0000000  -0.1146950   0.0000000
   13  -0.0000000  -0.0000000   0.0000000   0.0000000   0.0000000   0.0000000
   14   0.3982655  -0.3984238  -0.0835785   0.0643620  -0.0000000   0.0046597
   15   0.3298034  -0.3300759  -0.1401819   0.1094513  -0.0000000   0.0076769
   16   0.0001690   0.0001612   0.0544783   0.0691748  -0.0000000  -0.1812590
   17   0.0000000  -0.0000000  -0.0000000  -0.0000000  -0.1383771  -0.0000000
   18   0.0000000   0.0000000  -0.0000000  -0.0000000  -0.0000000  -0.0000000
   19   0.0032557  -0.0026761   0.3700684  -0.2915405   0.0000000  -0.0286244
   20   0.0003254   0.0001022   0.0781696   0.1192341  -0.0000000  -0.2903007
   21  -0.0000000  -0.0000000   0.0000000   0.0000000  -0.2339158  -0.0000000
   22  -0.0000000  -0.0000000   0.0000000   0.0000000   0.0000000  -0.0000000
   23  -0.0003982   0.0014640   0.1935370  -0.2436255  -0.0000000   0.0383681
   24  -0.0000825   0.0004112   0.0072231   0.0412309  -0.0000000  -0.1359561
   25   0.0000000   0.0000000  -0.0000000  -0.0000000  -0.1146950  -0.0000000
   26   0.0000000   0.0000000  -0.0000000  -0.0000000  -0.0000000  -0.0000000
   27   0.0002645   0.0002594   0.0504704   0.0892055  -0.0940211   0.0759998
   28  -0.0000061   0.0001493   0.0541629   0.1189782  -0.1319073   0.1163325
   29   0.0001588   0.0001094  -0.0061278   0.0121695  -0.0372459   0.0413532
   30   0.0002645   0.0002594   0.0504704   0.0892055   0.0940211   0.0759998
   31  -0.0000061   0.0001493   0.0541629   0.1189782   0.1319073   0.1163325
   32   0.0001588   0.0001094  -0.0061278   0.0121695   0.0372459   0.0413532
   33   0.0002645  -0.0002594   0.0504704  -0.0892055  -0.0940211   0.0759998
   34  -0.0000061  -0.0001493   0.0541629  -0.1189782  -0.1319073   0.1163325
   35   0.0001588  -0.0001094  -0.0061278  -0.0121695  -0.0372459   0.0413532
   36   0.0002645  -0.0002594   0.0504704  -0.0892055   0.0940211   0.0759998
   37  -0.0000061  -0.0001493   0.0541629  -0.1189782   0.1319073   0.1163325
   38   0.0001588  -0.0001094  -0.0061278  -0.0121695   0.0372459   0.0413532
            7           8           9          10          11          12
    1   0.0000000   0.0000000  -0.0000000   0.0283740   0.0000000  -0.0348220
    2   0.0000000   0.0000000  -0.0000000   0.0455637   0.0000000  -0.0580561
    3   0.0000000   0.0000000   0.0000000  -0.0614095  -0.0000000   0.0378460
    4  -0.1294198  -0.0000000   0.0000000  -0.0000000   0.0942751   0.0000000
    5  -0.0000000   0.1636190  -0.1622612  -0.0000000   0.0000000  -0.0000000
    6  -0.0000000  -0.0000000   0.0000000  -0.0517785  -0.0000000   0.0890565
    7   0.0000000   0.0000000   0.0000000  -0.0661148  -0.0000000   0.0010219
    8  -0.2294072   0.0000000   0.0000000  -0.0000000   0.0954890   0.0000000
    9  -0.0000000   0.2796497  -0.2204440  -0.0000000   0.0000000  -0.0000000
   10   0.0000000   0.0000000   0.0000000  -1.2598180   0.0000000   1.3174771
   11   0.0000000   0.0000000   0.0000000  -0.4279386  -0.0000000   0.3187950
   12  -0.1497802  -0.0000000  -0.0000000  -0.0000000   0.6880347   0.0000000
   13   0.0000000   0.2842565  -0.8067349  -0.0000000   0.0000000   0.0000000
   14   0.0000000  -0.0000000  -0.0000000   0.0283740  -0.0000000   0.0348220
   15   0.0000000  -0.0000000  -0.0000000   0.0455637  -0.0000000   0.0580561
   16  -0.0000000  -0.0000000  -0.0000000   0.0614095  -0.0000000   0.0378460
   17   0.1294198   0.0000000   0.0000000  -0.0000000   0.0942751   0.0000000
   18  -0.0000000   0.1636190   0.1622612   0.0000000   0.0000000  -0.0000000
   19  -0.0000000   0.0000000   0.0000000  -0.0517785   0.0000000  -0.0890565
   20  -0.0000000   0.0000000  -0.0000000   0.0661148   0.0000000   0.0010219
   21   0.2294072   0.0000000   0.0000000  -0.0000000   0.0954890   0.0000000
   22   0.0000000   0.2796497   0.2204440   0.0000000   0.0000000  -0.0000000
   23   0.0000000  -0.0000000   0.0000000  -1.2598180  -0.0000000  -1.3174771
   24  -0.0000000  -0.0000000   0.0000000   0.4279386  -0.0000000   0.3187950
   25   0.1497802  -0.0000000   0.0000000  -0.0000000   0.6880347   0.0000000
   26  -0.0000000   0.2842565   0.8067349   0.0000000  -0.0000000   0.0000000
   27  -0.1145573   0.0000000  -0.0000000   0.0123171  -0.0178855  -0.0196225
   28  -0.1831708  -0.0000000   0.0000000  -0.0358127   0.0322498   0.0704858
   29  -0.0781553  -0.0000000  -0.0000000   0.8739816  -1.1569432  -1.0791678
   30   0.1145573   0.0000000   0.0000000   0.0123171   0.0178855  -0.0196225
   31   0.1831708  -0.0000000  -0.0000000  -0.0358127  -0.0322498   0.0704858
   32   0.0781553  -0.0000000   0.0000000   0.8739816   1.1569432  -1.0791678
   33   0.1145573  -0.0000000  -0.0000000   0.0123171  -0.0178855   0.0196225
   34   0.1831708  -0.0000000  -0.0000000  -0.0358127   0.0322498  -0.0704858
   35   0.0781553   0.0000000  -0.0000000   0.8739816  -1.1569432   1.0791678
   36  -0.1145573   0.0000000   0.0000000   0.0123171   0.0178855   0.0196225
   37  -0.1831708   0.0000000   0.0000000  -0.0358127  -0.0322498  -0.0704858
   38  -0.0781553  -0.0000000   0.0000000   0.8739816   1.1569432   1.0791678
           13          14          15          16          17          18
    1   0.0000000  -0.0121892   0.0109590   0.0000000   0.0059859   0.0458859
    2   0.0000000  -0.0188691   0.0220510   0.0000000   0.0211292   0.0809037
    3  -0.0000000  -0.0721329   0.0149755   0.0000000   0.1010564   0.0276318
    4   0.0926681  -0.0000000   0.0000000  -0.0362012   0.0000000   0.0000000
    5  -0.0000000  -0.0000000   0.0000000   0.0000000  -0.0000000  -0.0000000
    6  -0.0000000  -0.0217169  -0.0879201  -0.0000000  -0.3678631  -0.0882799
    7   0.0000000  -0.0865002   0.1758096   0.0000000   0.4871213  -0.0064564
    8   0.0590302  -0.0000000   0.0000000  -0.1136782  -0.0000000   0.0000000
    9  -0.0000000  -0.0000000   0.0000000   0.0000000  -0.0000000  -0.0000000
   10   0.0000000   3.2870456  -0.9674889  -0.0000000   0.6106146  -3.8605945
   11  -0.0000000  -3.1305781  -1.0898954   0.0000000  -0.5544008   1.7779650
   12   1.4151435  -0.0000000   0.0000000  -0.7276118   0.0000000   0.0000000
   13   0.0000000   0.0000000  -0.0000000  -0.0000000   0.0000000  -0.0000000
   14  -0.0000000   0.0121892   0.0109590  -0.0000000   0.0059859  -0.0458859
   15  -0.0000000   0.0188691   0.0220510   0.0000000   0.0211292  -0.0809037
   16  -0.0000000  -0.0721329  -0.0149755   0.0000000  -0.1010564   0.0276318
   17  -0.0926681  -0.0000000   0.0000000  -0.0362012  -0.0000000   0.0000000
   18  -0.0000000   0.0000000   0.0000000   0.0000000  -0.0000000  -0.0000000
   19   0.0000000   0.0217169  -0.0879201  -0.0000000  -0.3678631   0.0882799
   20   0.0000000  -0.0865002  -0.1758096  -0.0000000  -0.4871213  -0.0064564
   21  -0.0590302  -0.0000000   0.0000000  -0.1136782   0.0000000   0.0000000
   22  -0.0000000  -0.0000000   0.0000000   0.0000000  -0.0000000  -0.0000000
   23  -0.0000000  -3.2870456  -0.9674889   0.0000000   0.6106146   3.8605945
   24  -0.0000000  -3.1305781   1.0898954   0.0000000   0.5544008   1.7779650
   25  -1.4151435   0.0000000   0.0000000  -0.7276118  -0.0000000  -0.0000000
   26  -0.0000000   0.0000000  -0.0000000  -0.0000000   0.0000000   0.0000000
   27   0.0109611   0.0277688   0.0303429   0.0614027  -0.0354983   0.0517254
   28   0.0238025   0.3576583   0.7168571   0.8535643  -0.5359640   0.8932348
   29  -1.6359317   0.4971842  -0.0451124  -0.1841555   0.1207246  -0.5583347
   30  -0.0109611   0.0277688   0.0303429  -0.0614027  -0.0354983   0.0517254
   31  -0.0238025   0.3576583   0.7168571  -0.8535643  -0.5359640   0.8932348
   32   1.6359317   0.4971842  -0.0451124   0.1841555   0.1207246  -0.5583347
   33  -0.0109611  -0.0277688   0.0303429   0.0614027  -0.0354983  -0.0517254
   34  -0.0238025  -0.3576583   0.7168571   0.8535643  -0.5359640  -0.8932348
   35   1.6359317  -0.4971842  -0.0451124  -0.1841555   0.1207246   0.5583347
   36   0.0109611  -0.0277688   0.0303429  -0.0614027  -0.0354983  -0.0517254
   37   0.0238025  -0.3576583   0.7168571  -0.8535643  -0.5359640  -0.8932348
   38  -1.6359317  -0.4971842  -0.0451124   0.1841555   0.1207246   0.5583347
           19          20          21          22          23          24
    1   0.0000000   0.0000000  -0.0000000   0.0000000   0.0816848   0.0359134
    2   0.0000000   0.0000000  -0.0000000   0.0000000   0.1875071   0.0825936
    3  -0.0000000  -0.0000000  -0.0000000  -0.0000000  -0.0883225  -0.1654752
    4  -0.0000000  -0.0000000   0.1493247  -0.2029577  -0.0000000   0.0000000
    5  -0.1339503   0.1830607   0.0000000  -0.0000000  -0.0000000  -0.0000000
    6  -0.0000000  -0.0000000   0.0000000  -0.0000000  -1.4053132  -0.7963236
    7  -0.0000000  -0.0000000  -0.0000000  -0.0000000  -0.2605149  -0.8814972
    8   0.0000000   0.0000000   0.8002002  -0.8480027   0.0000000   0.0000000
    9  -0.6627149   0.7391034   0.0000000   0.0000000   0.0000000  -0.0000000
   10   0.0000000   0.0000000  -0.0000000   0.0000000   2.0119828   2.3453622
   11   0.0000000  -0.0000000  -0.0000000   0.0000000   0.4738518   0.7148527
   12   0.0000000  -0.0000000  -1.3320303   1.7358616  -0.0000000  -0.0000000
   13   0.6900449  -1.1829349  -0.0000000   0.0000000   0.0000000   0.0000000
   14  -0.0000000   0.0000000   0.0000000  -0.0000000   0.0816848  -0.0359134
   15  -0.0000000   0.0000000   0.0000000  -0.0000000   0.1875071  -0.0825936
   16   0.0000000  -0.0000000  -0.0000000  -0.0000000   0.0883225  -0.1654752
   17   0.0000000  -0.0000000   0.1493247   0.2029577   0.0000000  -0.0000000
   18  -0.1339503  -0.1830607  -0.0000000  -0.0000000   0.0000000   0.0000000
   19   0.0000000  -0.0000000   0.0000000   0.0000000  -1.4053132   0.7963236
   20   0.0000000  -0.0000000  -0.0000000  -0.0000000   0.2605149  -0.8814972
   21  -0.0000000  -0.0000000   0.8002002   0.8480027   0.0000000  -0.0000000
   22  -0.6627149  -0.7391034  -0.0000000  -0.0000000   0.0000000   0.0000000
   23   0.0000000  -0.0000000  -0.0000000  -0.0000000   2.0119828  -2.3453622
   24   0.0000000  -0.0000000  -0.0000000   0.0000000  -0.4738518   0.7148527
   25  -0.0000000   0.0000000  -1.3320303  -1.7358616   0.0000000   0.0000000
   26   0.6900449   1.1829349   0.0000000   0.0000000  -0.0000000  -0.0000000
   27   0.0000000   0.0000000  -0.0187830   0.0312020   0.0183467   0.0159779
   28   0.0000000   0.0000000  -0.1807832   0.3326017   0.1569870   0.0074290
   29  -0.0000000  -0.0000000   1.0174889  -1.1377549  -0.7182445  -0.8292637
   30  -0.0000000  -0.0000000   0.0187830  -0.0312020   0.0183467   0.0159779
   31   0.0000000  -0.0000000   0.1807832  -0.3326017   0.1569870   0.0074290
   32  -0.0000000  -0.0000000  -1.0174889   1.1377549  -0.7182445  -0.8292637
   33   0.0000000   0.0000000  -0.0187830  -0.0312020   0.0183467  -0.0159779
   34   0.0000000  -0.0000000  -0.1807832  -0.3326017   0.1569870  -0.0074290
   35  -0.0000000  -0.0000000   1.0174889   1.1377549  -0.7182445   0.8292637
   36   0.0000000   0.0000000   0.0187830   0.0312020   0.0183467  -0.0159779
   37   0.0000000   0.0000000   0.1807832   0.3326017   0.1569870  -0.0074290
   38   0.0000000   0.0000000  -1.0174889  -1.1377549  -0.7182445   0.8292637
           25          26          27          28          29          30
    1  -0.0000000   0.0896590   0.0116592   0.0138311   0.0000000   0.0000000
    2  -0.0000000   0.2000053   0.0029649   0.0136409   0.0000000   0.0000000
    3   0.0000000   0.1911832  -0.2036814  -0.2085218  -0.0000000   0.0000000
    4  -0.0367497   0.0000000  -0.0000000   0.0000000  -0.3509890  -0.4696639
    5  -0.0000000   0.0000000   0.0000000   0.0000000  -0.0000000  -0.0000000
    6   0.0000000  -1.4635435   0.1515804   0.0375891  -0.0000000  -0.0000000
    7   0.0000000   0.5944511   0.2241844   0.3223599   0.0000000  -0.0000000
    8   0.1070408   0.0000000   0.0000000  -0.0000000   0.4003035   0.6202504
    9  -0.0000000   0.0000000  -0.0000000  -0.0000000  -0.0000000   0.0000000
   10  -0.0000000   5.1982874   0.1383123   0.8560645   0.0000000   0.0000000
   11   0.0000000  -2.2671337   0.0494098  -0.3445739  -0.0000000  -0.0000000
   12  -5.0585917  -0.0000000   0.0000000  -0.0000000   0.0286319   1.1929868
   13   0.0000000  -0.0000000   0.0000000   0.0000000   0.0000000  -0.0000000
   14  -0.0000000  -0.0896590   0.0116592  -0.0138311  -0.0000000  -0.0000000
   15  -0.0000000  -0.2000053   0.0029649  -0.0136409  -0.0000000  -0.0000000
   16  -0.0000000   0.1911832   0.2036814  -0.2085218  -0.0000000  -0.0000000
   17   0.0367497  -0.0000000   0.0000000  -0.0000000  -0.3509890   0.4696639
   18   0.0000000  -0.0000000  -0.0000000  -0.0000000   0.0000000   0.0000000
   19   0.0000000   1.4635435   0.1515804  -0.0375891  -0.0000000  -0.0000000
   20  -0.0000000   0.5944511  -0.2241844   0.3223599   0.0000000   0.0000000
   21  -0.1070408  -0.0000000  -0.0000000   0.0000000   0.4003035  -0.6202504
   22   0.0000000   0.0000000   0.0000000   0.0000000   0.0000000  -0.0000000
   23  -0.0000000  -5.1982874   0.1383123  -0.8560645  -0.0000000  -0.0000000
   24   0.0000000  -2.2671337  -0.0494098  -0.3445739  -0.0000000  -0.0000000
   25   5.0585917   0.0000000  -0.0000000   0.0000000   0.0286319  -1.1929868
   26  -0.0000000  -0.0000000  -0.0000000  -0.0000000  -0.0000000   0.0000000
   27   0.0156725   0.0134383   0.7546161   0.7587256   0.7150063   0.6848551
   28   1.7096298  -0.2464218  -1.0458634  -1.1034653  -1.0461419  -1.4792779
   29   1.0372339  -0.0087950   0.3109797   0.4187570   0.4328172   0.3290821
   30  -0.0156725   0.0134383   0.7546161   0.7587256  -0.7150063  -0.6848551
   31  -1.7096298  -0.2464218  -1.0458634  -1.1034653   1.0461419   1.4792779
   32  -1.0372339  -0.0087950   0.3109797   0.4187570  -0.4328172  -0.3290821
   33  -0.0156725  -0.0134383   0.7546161  -0.7587256   0.7150063  -0.6848551
   34  -1.7096298   0.2464218  -1.0458634   1.1034653  -1.0461419   1.4792779
   35  -1.0372339   0.0087950   0.3109797  -0.4187570   0.4328172  -0.3290821
   36   0.0156725  -0.0134383   0.7546161  -0.7587256  -0.7150063   0.6848551
   37   1.7096298   0.2464218  -1.0458634   1.1034653   1.0461419  -1.4792779
   38   1.0372339   0.0087950   0.3109797  -0.4187570  -0.4328172   0.3290821
           31          32          33          34          35          36
    1  -0.0000000   0.0000000   0.0123768  -0.0000000   0.0070468  -0.0000000
    2  -0.0000000   0.0000000   0.0461349   0.0000000   0.0255460   0.0000000
    3   0.0000000  -0.0000000  -0.9340418   0.0000000   0.9732620   0.0000000
    4  -0.0000000   0.0000000  -0.0000000   0.8970907   0.0000000  -0.8725613
    5   0.9305485   0.9468056  -0.0000000  -0.0000000  -0.0000000   0.0000000
    6   0.0000000  -0.0000000  -0.3957573  -0.0000000  -0.2152834  -0.0000000
    7  -0.0000000   0.0000000   1.6281355  -0.0000000  -0.9784938  -0.0000000
    8  -0.0000000  -0.0000000   0.0000000  -1.0533909  -0.0000000   1.2288685
    9  -0.9203653  -1.1268949   0.0000000   0.0000000   0.0000000  -0.0000000
   10  -0.0000000   0.0000000   0.8375786  -0.0000000   0.3910046   0.0000000
   11   0.0000000  -0.0000000  -1.3620017   0.0000000   0.5249772   0.0000000
   12   0.0000000   0.0000000  -0.0000000   0.7773875   0.0000000  -2.1248638
   13   0.3240742   0.5970449  -0.0000000  -0.0000000  -0.0000000   0.0000000
   14   0.0000000  -0.0000000  -0.0123768   0.0000000   0.0070468  -0.0000000
   15   0.0000000  -0.0000000  -0.0461349   0.0000000   0.0255460   0.0000000
   16   0.0000000  -0.0000000  -0.9340418  -0.0000000  -0.9732620  -0.0000000
   17  -0.0000000   0.0000000  -0.0000000   0.8970907  -0.0000000   0.8725613
   18   0.9305485  -0.9468056   0.0000000   0.0000000   0.0000000   0.0000000
   19  -0.0000000   0.0000000   0.3957573  -0.0000000  -0.2152834   0.0000000
   20  -0.0000000   0.0000000   1.6281355   0.0000000   0.9784938   0.0000000
   21   0.0000000  -0.0000000   0.0000000  -1.0533909   0.0000000  -1.2288685
   22  -0.9203653   1.1268949  -0.0000000  -0.0000000  -0.0000000  -0.0000000
   23   0.0000000  -0.0000000  -0.8375786   0.0000000   0.3910046   0.0000000
   24   0.0000000  -0.0000000  -1.3620017   0.0000000  -0.5249772  -0.0000000
   25  -0.0000000   0.0000000   0.0000000   0.7773875  -0.0000000   2.1248638
   26   0.3240742  -0.5970449   0.0000000   0.0000000   0.0000000  -0.0000000
   27  -0.0000000  -0.0000000  -0.2292744   0.3816796   0.2178408  -0.5196829
   28   0.0000000   0.0000000   0.1781727  -0.3834223  -0.1556688   0.7915576
   29  -0.0000000   0.0000000   0.2912952  -0.2742730  -0.0858014   0.4557044
   30   0.0000000  -0.0000000  -0.2292744  -0.3816796   0.2178408   0.5196829
   31  -0.0000000   0.0000000   0.1781727   0.3834223  -0.1556688  -0.7915576
   32   0.0000000   0.0000000   0.2912952   0.2742730  -0.0858014  -0.4557044
   33  -0.0000000   0.0000000   0.2292744   0.3816796   0.2178408   0.5196829
   34   0.0000000  -0.0000000  -0.1781727  -0.3834223  -0.1556688  -0.7915576
   35   0.0000000  -0.0000000  -0.2912952  -0.2742730  -0.0858014  -0.4557044
   36  -0.0000000   0.0000000   0.2292744  -0.3816796   0.2178408  -0.5196829
   37   0.0000000  -0.0000000  -0.1781727   0.3834223  -0.1556688   0.7915576
   38   0.0000000  -0.0000000  -0.2912952   0.2742730  -0.0858014   0.4557044
           37          38
    1   1.4314648  -1.4363265
    2  -1.5249982   1.5512973
    3  -0.0118494  -0.0241604
    4   0.0000000  -0.0000000
    5   0.0000000   0.0000000
    6   0.2946066  -0.3889348
    7   0.0439911   0.1090624
    8  -0.0000000   0.0000000
    9  -0.0000000  -0.0000000
   10  -0.2706864   0.7555470
   11  -0.0458272  -0.2607494
   12  -0.0000000  -0.0000000
   13   0.0000000   0.0000000
   14   1.4314648   1.4363265
   15  -1.5249982  -1.5512973
   16   0.0118494  -0.0241604
   17   0.0000000   0.0000000
   18  -0.0000000  -0.0000000
   19   0.2946066   0.3889348
   20  -0.0439911   0.1090624
   21  -0.0000000  -0.0000000
   22   0.0000000   0.0000000
   23  -0.2706864  -0.7555470
   24   0.0458272  -0.2607494
   25   0.0000000   0.0000000
   26  -0.0000000  -0.0000000
   27  -0.0129032   0.0065257
   28  -0.0079977  -0.0139554
   29   0.0814472  -0.0392046
   30  -0.0129032   0.0065257
   31  -0.0079977  -0.0139554
   32   0.0814472  -0.0392046
   33  -0.0129032  -0.0065257
   34  -0.0079977   0.0139554
   35   0.0814472   0.0392046
   36  -0.0129032  -0.0065257
   37  -0.0079977   0.0139554
   38   0.0814472   0.0392046
 Final Alpha Density Matrix
            1           2           3           4           5           6
    1   0.3285065   0.2816559   0.0009425  -0.0000000  -0.0000000  -0.0474645
    2   0.2816559   0.2494099   0.0014546   0.0000000  -0.0000000  -0.0820491
    3   0.0009425   0.0014546   0.0406079  -0.0000000   0.0000000  -0.0051820
    4  -0.0000000   0.0000000  -0.0000000   0.0358977  -0.0000000  -0.0000000
    5  -0.0000000  -0.0000000   0.0000000  -0.0000000   0.0267712  -0.0000000
    6  -0.0474645  -0.0820491  -0.0051820  -0.0000000  -0.0000000   0.2227836
    7   0.0001230   0.0000627   0.0651262   0.0000000   0.0000000  -0.0024770
    8   0.0000000   0.0000000  -0.0000000   0.0620584   0.0000000   0.0000000
    9   0.0000000   0.0000000   0.0000000   0.0000000   0.0457560  -0.0000000
   10  -0.0324189  -0.0541155   0.0132636  -0.0000000   0.0000000   0.1415451
   11  -0.0012198  -0.0022936   0.0278890   0.0000000   0.0000000   0.0054572
   12  -0.0000000  -0.0000000   0.0000000   0.0352557  -0.0000000  -0.0000000
   13  -0.0000000  -0.0000000   0.0000000  -0.0000000   0.0465098  -0.0000000
   14   0.0027385   0.0045467   0.0097185  -0.0000000  -0.0000000  -0.0120686
   15   0.0045467   0.0075505   0.0164907  -0.0000000  -0.0000000  -0.0199967
   16  -0.0097185  -0.0164907  -0.0310376  -0.0000000  -0.0000000   0.0455173
   17   0.0000000   0.0000000   0.0000000   0.0023987   0.0000000   0.0000000
   18   0.0000000   0.0000000   0.0000000  -0.0000000   0.0267712  -0.0000000
   19  -0.0120686  -0.0199967  -0.0455173  -0.0000000   0.0000000   0.0527775
   20  -0.0153899  -0.0260959  -0.0486302  -0.0000000   0.0000000   0.0720007
   21  -0.0000000  -0.0000000   0.0000000   0.0026788   0.0000000   0.0000000
   22  -0.0000000  -0.0000000   0.0000000  -0.0000000   0.0457560  -0.0000000
   23   0.0001082   0.0001812  -0.0204414   0.0000000  -0.0000000  -0.0005004
   24  -0.0037600  -0.0064605  -0.0221845   0.0000000  -0.0000000   0.0185860
   25   0.0000000   0.0000000  -0.0000000  -0.0035134  -0.0000000  -0.0000000
   26   0.0000000   0.0000000  -0.0000000   0.0000000   0.0465098  -0.0000000
   27  -0.0093969  -0.0160824   0.0171969   0.0278363   0.0000000   0.0425106
   28  -0.0115854  -0.0196746   0.0263659   0.0419589  -0.0000000   0.0514014
   29   0.0000284  -0.0000670   0.0086713   0.0152688  -0.0000000   0.0000973
   30  -0.0093969  -0.0160824   0.0171969  -0.0278363   0.0000000   0.0425106
   31  -0.0115854  -0.0196746   0.0263659  -0.0419589  -0.0000000   0.0514014
   32   0.0000284  -0.0000670   0.0086713  -0.0152688  -0.0000000   0.0000973
   33   0.0018793   0.0032737   0.0048553  -0.0018156  -0.0000000  -0.0095048
   34   0.0036110   0.0062714   0.0099053  -0.0054530  -0.0000000  -0.0179733
   35   0.0015078   0.0025247   0.0069876  -0.0049609   0.0000000  -0.0069991
   36   0.0018793   0.0032737   0.0048553   0.0018156   0.0000000  -0.0095048
   37   0.0036110   0.0062714   0.0099053   0.0054530   0.0000000  -0.0179733
   38   0.0015078   0.0025247   0.0069876   0.0049609  -0.0000000  -0.0069991
            7           8           9          10          11          12
    1   0.0001230   0.0000000   0.0000000  -0.0324189  -0.0012198  -0.0000000
    2   0.0000627   0.0000000   0.0000000  -0.0541155  -0.0022936  -0.0000000
    3   0.0651262  -0.0000000   0.0000000   0.0132636   0.0278890   0.0000000
    4   0.0000000   0.0620584   0.0000000  -0.0000000   0.0000000   0.0352557
    5   0.0000000   0.0000000   0.0457560   0.0000000   0.0000000  -0.0000000
    6  -0.0024770   0.0000000  -0.0000000   0.1415451   0.0054572  -0.0000000
    7   0.1046019  -0.0000000   0.0000000   0.0250580   0.0449489   0.0000000
    8  -0.0000000   0.1073443   0.0000000  -0.0000000   0.0000000   0.0611896
    9   0.0000000   0.0000000   0.0782039   0.0000000   0.0000000   0.0000000
   10   0.0250580  -0.0000000   0.0000000   0.0982843   0.0138627  -0.0000000
   11   0.0449489   0.0000000   0.0000000   0.0138627   0.0202364   0.0000000
   12   0.0000000   0.0611896   0.0000000  -0.0000000   0.0000000   0.0355890
   13   0.0000000  -0.0000000   0.0794922   0.0000000   0.0000000  -0.0000000
   14   0.0153899   0.0000000   0.0000000   0.0001082   0.0037600   0.0000000
   15   0.0260959   0.0000000   0.0000000   0.0001812   0.0064605  -0.0000000
   16  -0.0486302   0.0000000  -0.0000000   0.0204414  -0.0221845  -0.0000000
   17  -0.0000000   0.0026788   0.0000000  -0.0000000   0.0000000  -0.0035134
   18   0.0000000   0.0000000   0.0457560   0.0000000   0.0000000   0.0000000
   19  -0.0720007  -0.0000000   0.0000000  -0.0005004  -0.0185860   0.0000000
   20  -0.0761683   0.0000000   0.0000000   0.0330386  -0.0351166  -0.0000000
   21  -0.0000000   0.0020889   0.0000000  -0.0000000   0.0000000  -0.0075317
   22   0.0000000   0.0000000   0.0782039   0.0000000   0.0000000  -0.0000000
   23  -0.0330386   0.0000000  -0.0000000  -0.0204267  -0.0062259   0.0000000
   24  -0.0351166   0.0000000  -0.0000000   0.0062259  -0.0168361  -0.0000000
   25  -0.0000000  -0.0075317  -0.0000000  -0.0000000   0.0000000  -0.0092792
   26  -0.0000000   0.0000000   0.0794922   0.0000000  -0.0000000   0.0000000
   27   0.0287538   0.0482733   0.0000000   0.0344161   0.0136462   0.0279422
   28   0.0437238   0.0728759  -0.0000000   0.0439319   0.0203305   0.0425645
   29   0.0139348   0.0266418  -0.0000000   0.0033653   0.0061683   0.0159780
   30   0.0287538  -0.0482733  -0.0000000   0.0344161   0.0136462  -0.0279422
   31   0.0437238  -0.0728759  -0.0000000   0.0439319   0.0203305  -0.0425645
   32   0.0139348  -0.0266418  -0.0000000   0.0033653   0.0061683  -0.0159780
   33   0.0074811  -0.0042872  -0.0000000  -0.0090486   0.0062900  -0.0063747
   34   0.0153512  -0.0111655  -0.0000000  -0.0140399   0.0105192  -0.0123062
   35   0.0110328  -0.0092170   0.0000000  -0.0025640   0.0051647  -0.0074342
   36   0.0074811   0.0042872   0.0000000  -0.0090486   0.0062900   0.0063747
   37   0.0153512   0.0111655   0.0000000  -0.0140399   0.0105192   0.0123062
   38   0.0110328   0.0092170  -0.0000000  -0.0025640   0.0051647   0.0074342
           13          14          15          16          17          18
    1  -0.0000000   0.0027385   0.0045467  -0.0097185   0.0000000   0.0000000
    2  -0.0000000   0.0045467   0.0075505  -0.0164907   0.0000000   0.0000000
    3   0.0000000   0.0097185   0.0164907  -0.0310376   0.0000000   0.0000000
    4  -0.0000000  -0.0000000  -0.0000000  -0.0000000   0.0023987  -0.0000000
    5   0.0465098  -0.0000000  -0.0000000  -0.0000000   0.0000000   0.0267712
    6  -0.0000000  -0.0120686  -0.0199967   0.0455173   0.0000000  -0.0000000
    7   0.0000000   0.0153899   0.0260959  -0.0486302  -0.0000000   0.0000000
    8  -0.0000000   0.0000000   0.0000000   0.0000000   0.0026788   0.0000000
    9   0.0794922   0.0000000   0.0000000  -0.0000000   0.0000000   0.0457560
   10   0.0000000   0.0001082   0.0001812   0.0204414  -0.0000000   0.0000000
   11   0.0000000   0.0037600   0.0064605  -0.0221845   0.0000000   0.0000000
   12  -0.0000000   0.0000000  -0.0000000  -0.0000000  -0.0035134   0.0000000
   13   0.0808017  -0.0000000  -0.0000000  -0.0000000   0.0000000   0.0465098
   14  -0.0000000   0.3285065   0.2816559  -0.0009425   0.0000000  -0.0000000
   15  -0.0000000   0.2816559   0.2494099  -0.0014546   0.0000000  -0.0000000
   16  -0.0000000  -0.0009425  -0.0014546   0.0406079  -0.0000000  -0.0000000
   17   0.0000000   0.0000000   0.0000000  -0.0000000   0.0358977   0.0000000
   18   0.0465098  -0.0000000  -0.0000000  -0.0000000   0.0000000   0.0267712
   19   0.0000000  -0.0474645  -0.0820491   0.0051820  -0.0000000   0.0000000
   20   0.0000000  -0.0001230  -0.0000627   0.0651262   0.0000000   0.0000000
   21   0.0000000   0.0000000   0.0000000   0.0000000   0.0620584   0.0000000
   22   0.0794922   0.0000000   0.0000000  -0.0000000   0.0000000   0.0457560
   23  -0.0000000  -0.0324189  -0.0541155  -0.0132636   0.0000000  -0.0000000
   24  -0.0000000   0.0012198   0.0022936   0.0278890   0.0000000  -0.0000000
   25   0.0000000  -0.0000000   0.0000000   0.0000000   0.0352557  -0.0000000
   26   0.0808017  -0.0000000  -0.0000000   0.0000000   0.0000000   0.0465098
   27   0.0000000   0.0018793   0.0032737  -0.0048553  -0.0018156   0.0000000
   28  -0.0000000   0.0036110   0.0062714  -0.0099053  -0.0054530  -0.0000000
   29  -0.0000000   0.0015078   0.0025247  -0.0069876  -0.0049609  -0.0000000
   30   0.0000000   0.0018793   0.0032737  -0.0048553   0.0018156  -0.0000000
   31   0.0000000   0.0036110   0.0062714  -0.0099053   0.0054530  -0.0000000
   32  -0.0000000   0.0015078   0.0025247  -0.0069876   0.0049609  -0.0000000
   33   0.0000000  -0.0093969  -0.0160824  -0.0171969   0.0278363  -0.0000000
   34  -0.0000000  -0.0115854  -0.0196746  -0.0263659   0.0419589  -0.0000000
   35   0.0000000   0.0000284  -0.0000670  -0.0086713   0.0152688   0.0000000
   36  -0.0000000  -0.0093969  -0.0160824  -0.0171969  -0.0278363  -0.0000000
   37   0.0000000  -0.0115854  -0.0196746  -0.0263659  -0.0419589   0.0000000
   38  -0.0000000   0.0000284  -0.0000670  -0.0086713  -0.0152688  -0.0000000
           19          20          21          22          23          24
    1  -0.0120686  -0.0153899  -0.0000000  -0.0000000   0.0001082  -0.0037600
    2  -0.0199967  -0.0260959  -0.0000000  -0.0000000   0.0001812  -0.0064605
    3  -0.0455173  -0.0486302   0.0000000   0.0000000  -0.0204414  -0.0221845
    4  -0.0000000  -0.0000000   0.0026788  -0.0000000   0.0000000   0.0000000
    5   0.0000000   0.0000000   0.0000000   0.0457560  -0.0000000  -0.0000000
    6   0.0527775   0.0720007   0.0000000  -0.0000000  -0.0005004   0.0185860
    7  -0.0720007  -0.0761683  -0.0000000   0.0000000  -0.0330386  -0.0351166
    8  -0.0000000   0.0000000   0.0020889   0.0000000   0.0000000   0.0000000
    9   0.0000000   0.0000000   0.0000000   0.0782039  -0.0000000  -0.0000000
   10  -0.0005004   0.0330386  -0.0000000   0.0000000  -0.0204267   0.0062259
   11  -0.0185860  -0.0351166   0.0000000   0.0000000  -0.0062259  -0.0168361
   12   0.0000000  -0.0000000  -0.0075317  -0.0000000   0.0000000  -0.0000000
   13   0.0000000   0.0000000   0.0000000   0.0794922  -0.0000000  -0.0000000
   14  -0.0474645  -0.0001230   0.0000000   0.0000000  -0.0324189   0.0012198
   15  -0.0820491  -0.0000627   0.0000000   0.0000000  -0.0541155   0.0022936
   16   0.0051820   0.0651262   0.0000000  -0.0000000  -0.0132636   0.0278890
   17  -0.0000000   0.0000000   0.0620584   0.0000000   0.0000000   0.0000000
   18   0.0000000   0.0000000   0.0000000   0.0457560  -0.0000000  -0.0000000
   19   0.2227836   0.0024770  -0.0000000   0.0000000   0.1415451  -0.0054572
   20   0.0024770   0.1046019   0.0000000   0.0000000  -0.0250580   0.0449489
   21  -0.0000000   0.0000000   0.1073443   0.0000000   0.0000000   0.0000000
   22   0.0000000   0.0000000   0.0000000   0.0782039  -0.0000000  -0.0000000
   23   0.1415451  -0.0250580   0.0000000  -0.0000000   0.0982843  -0.0138627
   24  -0.0054572   0.0449489   0.0000000  -0.0000000  -0.0138627   0.0202364
   25  -0.0000000   0.0000000   0.0611896  -0.0000000   0.0000000   0.0000000
   26   0.0000000   0.0000000   0.0000000   0.0794922  -0.0000000  -0.0000000
   27  -0.0095048  -0.0074811  -0.0042872   0.0000000  -0.0090486  -0.0062900
   28  -0.0179733  -0.0153512  -0.0111655  -0.0000000  -0.0140399  -0.0105192
   29  -0.0069991  -0.0110328  -0.0092170  -0.0000000  -0.0025640  -0.0051647
   30  -0.0095048  -0.0074811   0.0042872   0.0000000  -0.0090486  -0.0062900
   31  -0.0179733  -0.0153512   0.0111655  -0.0000000  -0.0140399  -0.0105192
   32  -0.0069991  -0.0110328   0.0092170  -0.0000000  -0.0025640  -0.0051647
   33   0.0425106  -0.0287538   0.0482733  -0.0000000   0.0344161  -0.0136462
   34   0.0514014  -0.0437238   0.0728759  -0.0000000   0.0439319  -0.0203305
   35   0.0000973  -0.0139348   0.0266418   0.0000000   0.0033653  -0.0061683
   36   0.0425106  -0.0287538  -0.0482733  -0.0000000   0.0344161  -0.0136462
   37   0.0514014  -0.0437238  -0.0728759   0.0000000   0.0439319  -0.0203305
   38   0.0000973  -0.0139348  -0.0266418  -0.0000000   0.0033653  -0.0061683
           25          26          27          28          29          30
    1   0.0000000   0.0000000  -0.0093969  -0.0115854   0.0000284  -0.0093969
    2   0.0000000   0.0000000  -0.0160824  -0.0196746  -0.0000670  -0.0160824
    3  -0.0000000  -0.0000000   0.0171969   0.0263659   0.0086713   0.0171969
    4  -0.0035134   0.0000000   0.0278363   0.0419589   0.0152688  -0.0278363
    5  -0.0000000   0.0465098   0.0000000  -0.0000000  -0.0000000   0.0000000
    6  -0.0000000  -0.0000000   0.0425106   0.0514014   0.0000973   0.0425106
    7  -0.0000000  -0.0000000   0.0287538   0.0437238   0.0139348   0.0287538
    8  -0.0075317   0.0000000   0.0482733   0.0728759   0.0266418  -0.0482733
    9  -0.0000000   0.0794922   0.0000000  -0.0000000  -0.0000000  -0.0000000
   10  -0.0000000   0.0000000   0.0344161   0.0439319   0.0033653   0.0344161
   11   0.0000000  -0.0000000   0.0136462   0.0203305   0.0061683   0.0136462
   12  -0.0092792   0.0000000   0.0279422   0.0425645   0.0159780  -0.0279422
   13   0.0000000   0.0808017   0.0000000  -0.0000000  -0.0000000   0.0000000
   14  -0.0000000  -0.0000000   0.0018793   0.0036110   0.0015078   0.0018793
   15   0.0000000  -0.0000000   0.0032737   0.0062714   0.0025247   0.0032737
   16   0.0000000   0.0000000  -0.0048553  -0.0099053  -0.0069876  -0.0048553
   17   0.0352557   0.0000000  -0.0018156  -0.0054530  -0.0049609   0.0018156
   18  -0.0000000   0.0465098   0.0000000  -0.0000000  -0.0000000  -0.0000000
   19  -0.0000000   0.0000000  -0.0095048  -0.0179733  -0.0069991  -0.0095048
   20   0.0000000   0.0000000  -0.0074811  -0.0153512  -0.0110328  -0.0074811
   21   0.0611896   0.0000000  -0.0042872  -0.0111655  -0.0092170   0.0042872
   22  -0.0000000   0.0794922   0.0000000  -0.0000000  -0.0000000   0.0000000
   23   0.0000000  -0.0000000  -0.0090486  -0.0140399  -0.0025640  -0.0090486
   24   0.0000000  -0.0000000  -0.0062900  -0.0105192  -0.0051647  -0.0062900
   25   0.0355890  -0.0000000  -0.0063747  -0.0123062  -0.0074342   0.0063747
   26  -0.0000000   0.0808017   0.0000000  -0.0000000  -0.0000000  -0.0000000
   27  -0.0063747   0.0000000   0.0382443   0.0555740   0.0163744  -0.0056823
   28  -0.0123062  -0.0000000   0.0555740   0.0815738   0.0251555  -0.0111972
   29  -0.0074342  -0.0000000   0.0163744   0.0251555   0.0093913  -0.0085359
   30   0.0063747  -0.0000000  -0.0056823  -0.0111972  -0.0085359   0.0382443
   31   0.0123062  -0.0000000  -0.0111972  -0.0203284  -0.0133020   0.0555740
   32   0.0074342  -0.0000000  -0.0085359  -0.0133020  -0.0055997   0.0163744
   33   0.0279422  -0.0000000  -0.0039178  -0.0076202  -0.0037034   0.0046490
   34   0.0425645  -0.0000000  -0.0076202  -0.0138410  -0.0063719   0.0095428
   35   0.0159780   0.0000000  -0.0037034  -0.0063719  -0.0031214   0.0071993
   36  -0.0279422   0.0000000   0.0046490   0.0095428   0.0071993  -0.0039178
   37  -0.0425645   0.0000000   0.0095428   0.0184630   0.0124337  -0.0076202
   38  -0.0159780  -0.0000000   0.0071993   0.0124337   0.0063205  -0.0037034
           31          32          33          34          35          36
    1  -0.0115854   0.0000284   0.0018793   0.0036110   0.0015078   0.0018793
    2  -0.0196746  -0.0000670   0.0032737   0.0062714   0.0025247   0.0032737
    3   0.0263659   0.0086713   0.0048553   0.0099053   0.0069876   0.0048553
    4  -0.0419589  -0.0152688  -0.0018156  -0.0054530  -0.0049609   0.0018156
    5  -0.0000000  -0.0000000  -0.0000000  -0.0000000   0.0000000   0.0000000
    6   0.0514014   0.0000973  -0.0095048  -0.0179733  -0.0069991  -0.0095048
    7   0.0437238   0.0139348   0.0074811   0.0153512   0.0110328   0.0074811
    8  -0.0728759  -0.0266418  -0.0042872  -0.0111655  -0.0092170   0.0042872
    9  -0.0000000  -0.0000000  -0.0000000  -0.0000000   0.0000000   0.0000000
   10   0.0439319   0.0033653  -0.0090486  -0.0140399  -0.0025640  -0.0090486
   11   0.0203305   0.0061683   0.0062900   0.0105192   0.0051647   0.0062900
   12  -0.0425645  -0.0159780  -0.0063747  -0.0123062  -0.0074342   0.0063747
   13   0.0000000  -0.0000000   0.0000000  -0.0000000   0.0000000  -0.0000000
   14   0.0036110   0.0015078  -0.0093969  -0.0115854   0.0000284  -0.0093969
   15   0.0062714   0.0025247  -0.0160824  -0.0196746  -0.0000670  -0.0160824
   16  -0.0099053  -0.0069876  -0.0171969  -0.0263659  -0.0086713  -0.0171969
   17   0.0054530   0.0049609   0.0278363   0.0419589   0.0152688  -0.0278363
   18  -0.0000000  -0.0000000  -0.0000000  -0.0000000   0.0000000  -0.0000000
   19  -0.0179733  -0.0069991   0.0425106   0.0514014   0.0000973   0.0425106
   20  -0.0153512  -0.0110328  -0.0287538  -0.0437238  -0.0139348  -0.0287538
   21   0.0111655   0.0092170   0.0482733   0.0728759   0.0266418  -0.0482733
   22  -0.0000000  -0.0000000  -0.0000000  -0.0000000   0.0000000  -0.0000000
   23  -0.0140399  -0.0025640   0.0344161   0.0439319   0.0033653   0.0344161
   24  -0.0105192  -0.0051647  -0.0136462  -0.0203305  -0.0061683  -0.0136462
   25   0.0123062   0.0074342   0.0279422   0.0425645   0.0159780  -0.0279422
   26  -0.0000000  -0.0000000  -0.0000000  -0.0000000   0.0000000   0.0000000
   27  -0.0111972  -0.0085359  -0.0039178  -0.0076202  -0.0037034   0.0046490
   28  -0.0203284  -0.0133020  -0.0076202  -0.0138410  -0.0063719   0.0095428
   29  -0.0133020  -0.0055997  -0.0037034  -0.0063719  -0.0031214   0.0071993
   30   0.0555740   0.0163744   0.0046490   0.0095428   0.0071993  -0.0039178
   31   0.0815738   0.0251555   0.0095428   0.0184630   0.0124337  -0.0076202
   32   0.0251555   0.0093913   0.0071993   0.0124337   0.0063205  -0.0037034
   33   0.0095428   0.0071993   0.0382443   0.0555740   0.0163744  -0.0056823
   34   0.0184630   0.0124337   0.0555740   0.0815738   0.0251555  -0.0111972
   35   0.0124337   0.0063205   0.0163744   0.0251555   0.0093913  -0.0085359
   36  -0.0076202  -0.0037034  -0.0056823  -0.0111972  -0.0085359   0.0382443
   37  -0.0138410  -0.0063719  -0.0111972  -0.0203284  -0.0133020   0.0555740
   38  -0.0063719  -0.0031214  -0.0085359  -0.0133020  -0.0055997   0.0163744
           37          38
    1   0.0036110   0.0015078
    2   0.0062714   0.0025247
    3   0.0099053   0.0069876
    4   0.0054530   0.0049609
    5   0.0000000  -0.0000000
    6  -0.0179733  -0.0069991
    7   0.0153512   0.0110328
    8   0.0111655   0.0092170
    9   0.0000000  -0.0000000
   10  -0.0140399  -0.0025640
   11   0.0105192   0.0051647
   12   0.0123062   0.0074342
   13   0.0000000  -0.0000000
   14  -0.0115854   0.0000284
   15  -0.0196746  -0.0000670
   16  -0.0263659  -0.0086713
   17  -0.0419589  -0.0152688
   18   0.0000000  -0.0000000
   19   0.0514014   0.0000973
   20  -0.0437238  -0.0139348
   21  -0.0728759  -0.0266418
   22   0.0000000  -0.0000000
   23   0.0439319   0.0033653
   24  -0.0203305  -0.0061683
   25  -0.0425645  -0.0159780
   26   0.0000000  -0.0000000
   27   0.0095428   0.0071993
   28   0.0184630   0.0124337
   29   0.0124337   0.0063205
   30  -0.0076202  -0.0037034
   31  -0.0138410  -0.0063719
   32  -0.0063719  -0.0031214
   33  -0.0111972  -0.0085359
   34  -0.0203284  -0.0133020
   35  -0.0133020  -0.0055997
   36   0.0555740   0.0163744
   37   0.0815738   0.0251555
   38   0.0251555   0.0093913
 Final Alpha Fock Matrix
            1           2           3           4           5           6
    1  -9.5099027 -11.9570300   0.0007883  -0.0000000  -0.0000000  -4.4081456
    2 -11.9570300  -8.7320069   0.0023009  -0.0000000  -0.0000000  -3.9340825
    3   0.0007883   0.0023009   0.9627842   0.0000000  -0.0000000   0.0362155
    4  -0.0000000  -0.0000000   0.0000000   1.0044081  -0.0000000   0.0000000
    5  -0.0000000  -0.0000000  -0.0000000  -0.0000000   1.1001384   0.0000000
    6  -4.4081456  -3.9340825   0.0362155   0.0000000   0.0000000  -2.1722516
    7   0.0023225   0.0029810  -0.4954894   0.0000000  -0.0000000   0.0890826
    8   0.0000000   0.0000000   0.0000000  -0.4447499  -0.0000000   0.0000000
    9  -0.0000000   0.0000000  -0.0000000  -0.0000000  -0.3090914   0.0000000
   10  -1.9834843  -1.8630344   0.0171454   0.0000000   0.0000000  -1.5176091
   11   0.0016463   0.0004473  -0.4741175  -0.0000000   0.0000000   0.0618193
   12  -0.0000000   0.0000000   0.0000000  -0.4702185  -0.0000000   0.0000000
   13   0.0000000   0.0000000  -0.0000000  -0.0000000  -0.3909155   0.0000000
   14  -0.0019714  -0.0012599   0.0371463   0.0000000   0.0000000  -0.2722775
   15  -0.0012599  -0.0007608   0.0458944   0.0000000  -0.0000000  -0.2761412
   16  -0.0371463  -0.0458944   0.3296678  -0.0000000  -0.0000000  -0.3209787
   17  -0.0000000  -0.0000000   0.0000000  -0.0498070  -0.0000000  -0.0000000
   18   0.0000000   0.0000000  -0.0000000  -0.0000000  -0.1108631   0.0000000
   19  -0.2722775  -0.2761412   0.3209787  -0.0000000  -0.0000000  -0.5653346
   20  -0.8444254  -0.8262604   0.4001179  -0.0000000  -0.0000000  -0.7393609
   21  -0.0000000  -0.0000000   0.0000000  -0.1424120  -0.0000000  -0.0000000
   22   0.0000000   0.0000000  -0.0000000  -0.0000000  -0.2199514   0.0000000
   23  -0.8063934  -0.7669090   0.2316954  -0.0000000  -0.0000000  -0.8095434
   24  -1.5014901  -1.4092458   0.1259751   0.0000000  -0.0000000  -1.0776208
   25  -0.0000000  -0.0000000   0.0000000  -0.2109414   0.0000000  -0.0000000
   26  -0.0000000  -0.0000000  -0.0000000  -0.0000000  -0.2475441   0.0000000
   27  -0.1191882  -0.1400142  -0.2043886  -0.3482803  -0.0000000  -0.4130125
   28  -0.9227477  -0.8827299  -0.1885148  -0.3298593  -0.0000000  -0.8288692
   29  -1.0053676  -0.9559859  -0.0873714  -0.1595126   0.0000000  -0.9194763
   30  -0.1191882  -0.1400142  -0.2043886   0.3482803   0.0000000  -0.4130125
   31  -0.9227477  -0.8827299  -0.1885148   0.3298593   0.0000000  -0.8288692
   32  -1.0053676  -0.9559859  -0.0873714   0.1595126   0.0000000  -0.9194763
   33  -0.0003025   0.0004734  -0.0049525  -0.0007283   0.0000000  -0.0150168
   34  -0.0287814  -0.0292786   0.0523530  -0.0258159   0.0000000  -0.1259231
   35  -0.3132036  -0.3004107   0.1012700  -0.0501666   0.0000000  -0.3768184
   36  -0.0003025   0.0004734  -0.0049525   0.0007283   0.0000000  -0.0150168
   37  -0.0287814  -0.0292786   0.0523530   0.0258159  -0.0000000  -0.1259231
   38  -0.3132036  -0.3004107   0.1012700   0.0501666  -0.0000000  -0.3768184
            7           8           9          10          11          12
    1   0.0023225   0.0000000  -0.0000000  -1.9834843   0.0016463  -0.0000000
    2   0.0029810   0.0000000   0.0000000  -1.8630344   0.0004473   0.0000000
    3  -0.4954894   0.0000000  -0.0000000   0.0171454  -0.4741175   0.0000000
    4   0.0000000  -0.4447499  -0.0000000   0.0000000  -0.0000000  -0.4702185
    5  -0.0000000  -0.0000000  -0.3090914   0.0000000   0.0000000  -0.0000000
    6   0.0890826   0.0000000   0.0000000  -1.5176091   0.0618193   0.0000000
    7  -0.3682082   0.0000000  -0.0000000   0.1215184  -0.5836689   0.0000000
    8   0.0000000  -0.2128158  -0.0000000  -0.0000000  -0.0000000  -0.4440719
    9  -0.0000000  -0.0000000   0.0812668   0.0000000   0.0000000   0.0000000
   10   0.1215184  -0.0000000   0.0000000  -1.1672141   0.2012971   0.0000000
   11  -0.5836689  -0.0000000   0.0000000   0.2012971  -0.5818594  -0.0000000
   12   0.0000000  -0.4440719   0.0000000   0.0000000  -0.0000000  -0.2730207
   13  -0.0000000  -0.0000000  -0.2235255  -0.0000000   0.0000000   0.0000000
   14   0.8444254  -0.0000000  -0.0000000  -0.8063934   1.5014901   0.0000000
   15   0.8262604  -0.0000000  -0.0000000  -0.7669090   1.4092458  -0.0000000
   16   0.4001179  -0.0000000  -0.0000000  -0.2316954   0.1259751  -0.0000000
   17   0.0000000  -0.1424120  -0.0000000  -0.0000000   0.0000000  -0.2109414
   18  -0.0000000  -0.0000000  -0.2199514  -0.0000000  -0.0000000   0.0000000
   19   0.7393609  -0.0000000  -0.0000000  -0.8095434   1.0776208  -0.0000000
   20   0.2686723  -0.0000000  -0.0000000  -0.4713829   0.0675114  -0.0000000
   21   0.0000000  -0.1731749  -0.0000000  -0.0000000   0.0000000  -0.2337302
   22  -0.0000000  -0.0000000  -0.2667712  -0.0000000  -0.0000000   0.0000000
   23   0.4713829  -0.0000000  -0.0000000  -0.8376060   0.6845397   0.0000000
   24   0.0675114  -0.0000000  -0.0000000  -0.6845397  -0.1112803  -0.0000000
   25   0.0000000  -0.2337302   0.0000000   0.0000000   0.0000000  -0.1976928
   26  -0.0000000  -0.0000000  -0.2509020   0.0000000   0.0000000   0.0000000
   27  -0.2220848  -0.3780210  -0.0000000  -0.4021401  -0.1964711  -0.3369304
   28  -0.1748695  -0.3233017  -0.0000000  -0.6351101  -0.1194789  -0.2286305
   29  -0.0594465  -0.1929713   0.0000000  -0.7204208   0.0342827  -0.1088663
   30  -0.2220848   0.3780210   0.0000000  -0.4021401  -0.1964711   0.3369304
   31  -0.1748695   0.3233017   0.0000000  -0.6351101  -0.1194789   0.2286305
   32  -0.0594465   0.1929713  -0.0000000  -0.7204208   0.0342827   0.1088663
   33   0.0558334  -0.0337595   0.0000000  -0.1208830   0.2457854  -0.1164681
   34   0.2091509  -0.0699183  -0.0000000  -0.2724819   0.4225428  -0.1155773
   35   0.2504565  -0.0720560   0.0000000  -0.4501064   0.4277662  -0.0720181
   36   0.0558334   0.0337595   0.0000000  -0.1208830   0.2457854   0.1164681
   37   0.2091509   0.0699183  -0.0000000  -0.2724819   0.4225428   0.1155773
   38   0.2504565   0.0720560  -0.0000000  -0.4501064   0.4277662   0.0720181
           13          14          15          16          17          18
    1   0.0000000  -0.0019714  -0.0012599  -0.0371463  -0.0000000   0.0000000
    2   0.0000000  -0.0012599  -0.0007608  -0.0458944  -0.0000000   0.0000000
    3  -0.0000000   0.0371463   0.0458944   0.3296678   0.0000000  -0.0000000
    4  -0.0000000   0.0000000   0.0000000  -0.0000000  -0.0498070  -0.0000000
    5  -0.3909155   0.0000000  -0.0000000  -0.0000000  -0.0000000  -0.1108631
    6   0.0000000  -0.2722775  -0.2761412  -0.3209787  -0.0000000   0.0000000
    7  -0.0000000   0.8444254   0.8262604   0.4001179   0.0000000  -0.0000000
    8  -0.0000000  -0.0000000  -0.0000000  -0.0000000  -0.1424120  -0.0000000
    9  -0.2235255  -0.0000000  -0.0000000  -0.0000000  -0.0000000  -0.2199514
   10  -0.0000000  -0.8063934  -0.7669090  -0.2316954  -0.0000000  -0.0000000
   11   0.0000000   1.5014901   1.4092458   0.1259751   0.0000000  -0.0000000
   12   0.0000000   0.0000000  -0.0000000  -0.0000000  -0.2109414   0.0000000
   13  -0.0525714   0.0000000  -0.0000000  -0.0000000  -0.0000000  -0.2475441
   14   0.0000000  -9.5099027 -11.9570300  -0.0007883  -0.0000000   0.0000000
   15  -0.0000000 -11.9570300  -8.7320069  -0.0023009  -0.0000000   0.0000000
   16  -0.0000000  -0.0007883  -0.0023009   0.9627842  -0.0000000   0.0000000
   17  -0.0000000  -0.0000000  -0.0000000  -0.0000000   1.0044081  -0.0000000
   18  -0.2475441   0.0000000   0.0000000   0.0000000  -0.0000000   1.1001384
   19  -0.0000000  -4.4081456  -3.9340825  -0.0362155  -0.0000000  -0.0000000
   20  -0.0000000  -0.0023225  -0.0029810  -0.4954894  -0.0000000   0.0000000
   21  -0.0000000  -0.0000000  -0.0000000  -0.0000000  -0.4447499  -0.0000000
   22  -0.2509020  -0.0000000  -0.0000000   0.0000000  -0.0000000  -0.3090914
   23  -0.0000000  -1.9834843  -1.8630344  -0.0171454  -0.0000000  -0.0000000
   24  -0.0000000  -0.0016463  -0.0004473  -0.4741175  -0.0000000  -0.0000000
   25   0.0000000   0.0000000  -0.0000000  -0.0000000  -0.4702185  -0.0000000
   26  -0.1509879   0.0000000  -0.0000000  -0.0000000  -0.0000000  -0.3909155
   27  -0.0000000  -0.0003025   0.0004734   0.0049525  -0.0007283  -0.0000000
   28   0.0000000  -0.0287814  -0.0292786  -0.0523530  -0.0258159   0.0000000
   29   0.0000000  -0.3132036  -0.3004107  -0.1012700  -0.0501666   0.0000000
   30   0.0000000  -0.0003025   0.0004734   0.0049525   0.0007283  -0.0000000
   31   0.0000000  -0.0287814  -0.0292786  -0.0523530   0.0258159  -0.0000000
   32  -0.0000000  -0.3132036  -0.3004107  -0.1012700   0.0501666  -0.0000000
   33  -0.0000000  -0.1191882  -0.1400142   0.2043886  -0.3482803  -0.0000000
   34  -0.0000000  -0.9227477  -0.8827299   0.1885148  -0.3298593  -0.0000000
   35   0.0000000  -1.0053676  -0.9559859   0.0873714  -0.1595126  -0.0000000
   36   0.0000000  -0.1191882  -0.1400142   0.2043886   0.3482803   0.0000000
   37  -0.0000000  -0.9227477  -0.8827299   0.1885148   0.3298593   0.0000000
   38  -0.0000000  -1.0053676  -0.9559859   0.0873714   0.1595126   0.0000000
           19          20          21          22          23          24
    1  -0.2722775  -0.8444254  -0.0000000   0.0000000  -0.8063934  -1.5014901
    2  -0.2761412  -0.8262604  -0.0000000   0.0000000  -0.7669090  -1.4092458
    3   0.3209787   0.4001179   0.0000000  -0.0000000   0.2316954   0.1259751
    4  -0.0000000  -0.0000000  -0.1424120  -0.0000000  -0.0000000   0.0000000
    5  -0.0000000  -0.0000000  -0.0000000  -0.2199514  -0.0000000  -0.0000000
    6  -0.5653346  -0.7393609  -0.0000000   0.0000000  -0.8095434  -1.0776208
    7   0.7393609   0.2686723   0.0000000  -0.0000000   0.4713829   0.0675114
    8  -0.0000000  -0.0000000  -0.1731749  -0.0000000  -0.0000000  -0.0000000
    9  -0.0000000  -0.0000000  -0.0000000  -0.2667712  -0.0000000  -0.0000000
   10  -0.8095434  -0.4713829  -0.0000000  -0.0000000  -0.8376060  -0.6845397
   11   1.0776208   0.0675114   0.0000000  -0.0000000   0.6845397  -0.1112803
   12  -0.0000000  -0.0000000  -0.2337302   0.0000000   0.0000000  -0.0000000
   13  -0.0000000  -0.0000000  -0.0000000  -0.2509020  -0.0000000  -0.0000000
   14  -4.4081456  -0.0023225  -0.0000000  -0.0000000  -1.9834843  -0.0016463
   15  -3.9340825  -0.0029810  -0.0000000  -0.0000000  -1.8630344  -0.0004473
   16  -0.0362155  -0.4954894  -0.0000000   0.0000000  -0.0171454  -0.4741175
   17  -0.0000000  -0.0000000  -0.4447499  -0.0000000  -0.0000000  -0.0000000
   18  -0.0000000   0.0000000  -0.0000000  -0.3090914  -0.0000000  -0.0000000
   19  -2.1722516  -0.0890826  -0.0000000  -0.0000000  -1.5176091  -0.0618193
   20  -0.0890826  -0.3682082  -0.0000000   0.0000000  -0.1215184  -0.5836689
   21  -0.0000000  -0.0000000  -0.2128158  -0.0000000  -0.0000000  -0.0000000
   22  -0.0000000   0.0000000  -0.0000000   0.0812668   0.0000000  -0.0000000
   23  -1.5176091  -0.1215184  -0.0000000   0.0000000  -1.1672141  -0.2012971
   24  -0.0618193  -0.5836689  -0.0000000  -0.0000000  -0.2012971  -0.5818594
   25  -0.0000000  -0.0000000  -0.4440719   0.0000000   0.0000000  -0.0000000
   26  -0.0000000  -0.0000000  -0.0000000  -0.2235255   0.0000000  -0.0000000
   27  -0.0150168  -0.0558334  -0.0337595  -0.0000000  -0.1208830  -0.2457854
   28  -0.1259231  -0.2091509  -0.0699183   0.0000000  -0.2724819  -0.4225428
   29  -0.3768184  -0.2504565  -0.0720560   0.0000000  -0.4501064  -0.4277662
   30  -0.0150168  -0.0558334   0.0337595  -0.0000000  -0.1208830  -0.2457854
   31  -0.1259231  -0.2091509   0.0699183  -0.0000000  -0.2724819  -0.4225428
   32  -0.3768184  -0.2504565   0.0720560  -0.0000000  -0.4501064  -0.4277662
   33  -0.4130125   0.2220848  -0.3780210  -0.0000000  -0.4021401   0.1964711
   34  -0.8288692   0.1748695  -0.3233017  -0.0000000  -0.6351101   0.1194789
   35  -0.9194763   0.0594465  -0.1929713   0.0000000  -0.7204208  -0.0342827
   36  -0.4130125   0.2220848   0.3780210   0.0000000  -0.4021401   0.1964711
   37  -0.8288692   0.1748695   0.3233017   0.0000000  -0.6351101   0.1194789
   38  -0.9194763   0.0594465   0.1929713   0.0000000  -0.7204208  -0.0342827
           25          26          27          28          29          30
    1  -0.0000000  -0.0000000  -0.1191882  -0.9227477  -1.0053676  -0.1191882
    2  -0.0000000  -0.0000000  -0.1400142  -0.8827299  -0.9559859  -0.1400142
    3   0.0000000  -0.0000000  -0.2043886  -0.1885148  -0.0873714  -0.2043886
    4  -0.2109414  -0.0000000  -0.3482803  -0.3298593  -0.1595126   0.3482803
    5   0.0000000  -0.2475441  -0.0000000  -0.0000000   0.0000000   0.0000000
    6  -0.0000000   0.0000000  -0.4130125  -0.8288692  -0.9194763  -0.4130125
    7   0.0000000  -0.0000000  -0.2220848  -0.1748695  -0.0594465  -0.2220848
    8  -0.2337302  -0.0000000  -0.3780210  -0.3233017  -0.1929713   0.3780210
    9   0.0000000  -0.2509020  -0.0000000  -0.0000000   0.0000000   0.0000000
   10   0.0000000   0.0000000  -0.4021401  -0.6351101  -0.7204208  -0.4021401
   11   0.0000000   0.0000000  -0.1964711  -0.1194789   0.0342827  -0.1964711
   12  -0.1976928   0.0000000  -0.3369304  -0.2286305  -0.1088663   0.3369304
   13   0.0000000  -0.1509879  -0.0000000   0.0000000   0.0000000   0.0000000
   14   0.0000000   0.0000000  -0.0003025  -0.0287814  -0.3132036  -0.0003025
   15  -0.0000000  -0.0000000   0.0004734  -0.0292786  -0.3004107   0.0004734
   16  -0.0000000  -0.0000000   0.0049525  -0.0523530  -0.1012700   0.0049525
   17  -0.4702185  -0.0000000  -0.0007283  -0.0258159  -0.0501666   0.0007283
   18  -0.0000000  -0.3909155  -0.0000000   0.0000000   0.0000000  -0.0000000
   19  -0.0000000  -0.0000000  -0.0150168  -0.1259231  -0.3768184  -0.0150168
   20  -0.0000000  -0.0000000  -0.0558334  -0.2091509  -0.2504565  -0.0558334
   21  -0.4440719  -0.0000000  -0.0337595  -0.0699183  -0.0720560   0.0337595
   22   0.0000000  -0.2235255  -0.0000000   0.0000000   0.0000000  -0.0000000
   23   0.0000000   0.0000000  -0.1208830  -0.2724819  -0.4501064  -0.1208830
   24  -0.0000000  -0.0000000  -0.2457854  -0.4225428  -0.4277662  -0.2457854
   25  -0.2730207   0.0000000  -0.1164681  -0.1155773  -0.0720181   0.1164681
   26   0.0000000  -0.0525714  -0.0000000   0.0000000   0.0000000   0.0000000
   27  -0.1164681  -0.0000000   0.5359502  -0.4969810  -0.4807337   0.0044537
   28  -0.1155773   0.0000000  -0.4969810  -0.5237390  -0.5312911  -0.0797710
   29  -0.0720181   0.0000000  -0.4807337  -0.5312911  -0.4784987  -0.1914562
   30   0.1164681   0.0000000   0.0044537  -0.0797710  -0.1914562   0.5359502
   31   0.1155773  -0.0000000  -0.0797710  -0.2474329  -0.3477156  -0.4969810
   32   0.0720181  -0.0000000  -0.1914562  -0.3477156  -0.4195506  -0.4807337
   33  -0.3369304   0.0000000   0.0069113  -0.0084452  -0.0928330  -0.0060590
   34  -0.2286305   0.0000000  -0.0084452  -0.0539340  -0.1671855  -0.0042051
   35  -0.1088663   0.0000000  -0.0928330  -0.1671855  -0.2637149  -0.0349771
   36   0.3369304   0.0000000  -0.0060590  -0.0042051  -0.0349771   0.0069113
   37   0.2286305   0.0000000  -0.0042051  -0.0184575  -0.1031414  -0.0084452
   38   0.1088663   0.0000000  -0.0349771  -0.1031414  -0.2186406  -0.0928330
           31          32          33          34          35          36
    1  -0.9227477  -1.0053676  -0.0003025  -0.0287814  -0.3132036  -0.0003025
    2  -0.8827299  -0.9559859   0.0004734  -0.0292786  -0.3004107   0.0004734
    3  -0.1885148  -0.0873714  -0.0049525   0.0523530   0.1012700  -0.0049525
    4   0.3298593   0.1595126  -0.0007283  -0.0258159  -0.0501666   0.0007283
    5   0.0000000   0.0000000   0.0000000   0.0000000   0.0000000   0.0000000
    6  -0.8288692  -0.9194763  -0.0150168  -0.1259231  -0.3768184  -0.0150168
    7  -0.1748695  -0.0594465   0.0558334   0.2091509   0.2504565   0.0558334
    8   0.3233017   0.1929713  -0.0337595  -0.0699183  -0.0720560   0.0337595
    9   0.0000000  -0.0000000   0.0000000  -0.0000000   0.0000000   0.0000000
   10  -0.6351101  -0.7204208  -0.1208830  -0.2724819  -0.4501064  -0.1208830
   11  -0.1194789   0.0342827   0.2457854   0.4225428   0.4277662   0.2457854
   12   0.2286305   0.1088663  -0.1164681  -0.1155773  -0.0720181   0.1164681
   13   0.0000000  -0.0000000  -0.0000000  -0.0000000   0.0000000   0.0000000
   14  -0.0287814  -0.3132036  -0.1191882  -0.9227477  -1.0053676  -0.1191882
   15  -0.0292786  -0.3004107  -0.1400142  -0.8827299  -0.9559859  -0.1400142
   16  -0.0523530  -0.1012700   0.2043886   0.1885148   0.0873714   0.2043886
   17   0.0258159   0.0501666  -0.3482803  -0.3298593  -0.1595126   0.3482803
   18  -0.0000000  -0.0000000  -0.0000000  -0.0000000  -0.0000000   0.0000000
   19  -0.1259231  -0.3768184  -0.4130125  -0.8288692  -0.9194763  -0.4130125
   20  -0.2091509  -0.2504565   0.2220848   0.1748695   0.0594465   0.2220848
   21   0.0699183   0.0720560  -0.3780210  -0.3233017  -0.1929713   0.3780210
   22  -0.0000000  -0.0000000  -0.0000000  -0.0000000   0.0000000   0.0000000
   23  -0.2724819  -0.4501064  -0.4021401  -0.6351101  -0.7204208  -0.4021401
   24  -0.4225428  -0.4277662   0.1964711   0.1194789  -0.0342827   0.1964711
   25   0.1155773   0.0720181  -0.3369304  -0.2286305  -0.1088663   0.3369304
   26  -0.0000000  -0.0000000   0.0000000   0.0000000   0.0000000   0.0000000
   27  -0.0797710  -0.1914562   0.0069113  -0.0084452  -0.0928330  -0.0060590
   28  -0.2474329  -0.3477156  -0.0084452  -0.0539340  -0.1671855  -0.0042051
   29  -0.3477156  -0.4195506  -0.0928330  -0.1671855  -0.2637149  -0.0349771
   30  -0.4969810  -0.4807337  -0.0060590  -0.0042051  -0.0349771   0.0069113
   31  -0.5237390  -0.5312911  -0.0042051  -0.0184575  -0.1031414  -0.0084452
   32  -0.5312911  -0.4784987  -0.0349771  -0.1031414  -0.2186406  -0.0928330
   33  -0.0042051  -0.0349771   0.5359502  -0.4969810  -0.4807337   0.0044537
   34  -0.0184575  -0.1031414  -0.4969810  -0.5237390  -0.5312911  -0.0797710
   35  -0.1031414  -0.2186406  -0.4807337  -0.5312911  -0.4784987  -0.1914562
   36  -0.0084452  -0.0928330   0.0044537  -0.0797710  -0.1914562   0.5359502
   37  -0.0539340  -0.1671855  -0.0797710  -0.2474329  -0.3477156  -0.4969810
   38  -0.1671855  -0.2637149  -0.1914562  -0.3477156  -0.4195506  -0.4807337
           37          38
    1  -0.0287814  -0.3132036
    2  -0.0292786  -0.3004107
    3   0.0523530   0.1012700
    4   0.0258159   0.0501666
    5  -0.0000000  -0.0000000
    6  -0.1259231  -0.3768184
    7   0.2091509   0.2504565
    8   0.0699183   0.0720560
    9  -0.0000000  -0.0000000
   10  -0.2724819  -0.4501064
   11   0.4225428   0.4277662
   12   0.1155773   0.0720181
   13  -0.0000000  -0.0000000
   14  -0.9227477  -1.0053676
   15  -0.8827299  -0.9559859
   16   0.1885148   0.0873714
   17   0.3298593   0.1595126
   18   0.0000000   0.0000000
   19  -0.8288692  -0.9194763
   20   0.1748695   0.0594465
   21   0.3233017   0.1929713
   22   0.0000000   0.0000000
   23  -0.6351101  -0.7204208
   24   0.1194789  -0.0342827
   25   0.2286305   0.1088663
   26   0.0000000   0.0000000
   27  -0.0042051  -0.0349771
   28  -0.0184575  -0.1031414
   29  -0.1031414  -0.2186406
   30  -0.0084452  -0.0928330
   31  -0.0539340  -0.1671855
   32  -0.1671855  -0.2637149
   33  -0.0797710  -0.1914562
   34  -0.2474329  -0.3477156
   35  -0.3477156  -0.4195506
   36  -0.4969810  -0.4807337
   37  -0.5237390  -0.5312911
   38  -0.5312911  -0.4784987
 SCF time:   CPU 0.16s  wall 0.00s 
 SCF   energy in the final basis set =      -78.0161214180
 Total energy in the final basis set =      -78.0161214180
 Total wall time for computing JK: 0.25 s (8)

 --------------------------------------------------------------

                    Orbital Energies (a.u.)
 --------------------------------------------------------------

 Alpha MOs
 -- Occupied --
-11.2411 -11.2395  -1.0369  -0.7822  -0.6462  -0.5782  -0.5033  -0.3754
 -- Virtual --
  0.1573   0.1683   0.1937   0.1994   0.2618   0.4382   0.4457   0.4851
  0.5628   0.5889   0.5947   0.7171   0.7798   0.8442   0.9002   0.9123
  0.9383   1.1138   2.4653   2.5418   2.5753   2.6566   2.9645   3.1079
  3.1473   3.2587   3.4471   3.6452  24.3727  24.7293
 --------------------------------------------------------------

          Ground-State Mulliken Net Atomic Charges

     Atom                 Charge (a.u.)
  ----------------------------------------
      1 C                    -0.329052
      2 C                    -0.329052
      3 H                     0.164526
      4 H                     0.164526
      5 H                     0.164526
      6 H                     0.164526
  ----------------------------------------
  Sum of atomic charges =     0.000000

 -----------------------------------------------------------------
                    Cartesian Multipole Moments
 -----------------------------------------------------------------
    Charge (ESU x 10^10)
                -0.0000
    Dipole Moment (Debye)
         X      -0.0000      Y       0.0000      Z      -0.0000
       Tot       0.0000
    Quadrupole Moments (Debye-Ang)
        XX     -12.6320     XY      -0.0000     YY     -12.2750
        XZ      -0.0000     YZ       0.0000     ZZ     -16.0451
    Octopole Moments (Debye-Ang^2)
       XXX      -0.0000    XXY       0.0000    XYY      -0.0000
       YYY       0.0000    XXZ      -0.0000    XYZ       0.0000
       YYZ      -0.0000    XZZ      -0.0000    YZZ       0.0000
       ZZZ      -0.0000
    Hexadecapole Moments (Debye-Ang^3)
      XXXX     -68.6852   XXXY      -0.0000   XXYY     -13.4186
      XYYY      -0.0000   YYYY     -27.1968   XXXZ      -0.0000
      XXYZ       0.0000   XYYZ       0.0000   YYYZ       0.0000
      XXZZ     -15.5703   XYZZ      -0.0000   YYZZ      -8.3280
      XZZZ      -0.0000   YZZZ      -0.0000   ZZZZ     -18.7000
 -----------------------------------------------------------------
 Total job time:  1.20s(wall), 0.30s(cpu) 
 Tue Apr 25 18:49:55 2023

        *************************************************************
        *                                                           *
        *  Thank you very much for using Q-Chem.  Have a nice day.  *
        *                                                           *
        *************************************************************


