                  Welcome to Q-Chem
     A Quantum Leap Into The Future Of Chemistry


 Q-Chem 6.0 (devel), Q-Chem, Inc., Pleasanton, CA (2022)

 E. Epifanovsky,  A. T. B. Gilbert,  Xintian Feng,  Joonho Lee,  Yuezhi Mao,  
 N. Mardirossian,  P. Pokhilko,  A. White,  M. Wormit,  M. P. Coons,  
 A. L. Dempwolff,  Zhengting Gan,  D. Hait,  P. R. Horn,  L. D. Jacobson,  
 I. Kaliman,  J. Kussmann,  A. W. Lange,  Ka Un Lao,  D. S. Levine,  Jie Liu,  
 S. C. McKenzie,  A. F. Morrison,  K. Nanda,  F. Plasser,  D. R. Rehn,  
 M. L. Vidal,  Zhi-Qiang You,  Ying Zhu,  B. Alam,  B. Albrecht,  
 A. Aldossary,  E. Alguire,  J. H. Andersen,  V. Athavale,  D. Barton,  
 K. Begam,  A. Behn,  N. Bellonzi,  Y. A. Bernard,  E. J. Berquist,  
 H. Burton,  A. Carreras,  K. Carter-Fenk,  Romit Chakraborty,  
 Chandrima Chakravarty,  Junhan Chen,  A. D. Chien,  K. D. Closser,  
 V. Cofer-Shabica,  L. Cunha,  S. Dasgupta,  Jia Deng,  M. de Wergifosse,  
 M. Diedenhofen,  Hainam Do,  S. Ehlert,  Po-Tung Fang,  S. Fatehi,  
 Qingguo Feng,  T. Friedhoff,  B. Ganoe,  J. Gayvert,  Qinghui Ge,  
 G. Gidofalvi,  M. Goldey,  J. Gomes,  C. Gonzalez-Espinoza,  S. Gulania,  
 A. Gunina,  J. A. Gyamfi,  M. W. D. Hanson-Heine,  P. H. P. Harbach,  
 A. W. Hauser,  M. F. Herbst,  M. Hernandez Vera,  M. Hodecker,  
 Z. C. Holden,  S. Houck,  Xunkun Huang,  Kerwin Hui,  B. C. Huynh,  
 K. Ikeda,  M. Ivanov,  Hyunjun Ji,  Zuxin Jin,  Hanjie Jiang,  B. Kaduk,  
 S. Kaehler,  R. Kang,  K. Khistyaev,  Jaehoon Kim,  Yongbin Kim,  
 P. Klunzinger,  Z. Koczor-Benda,  Joong Hoon Koh,  D. Kosenkov,  
 Saikiran Kotaru,  L. Koulias,  T. Kowalczyk,  C. M. Krauter,  K. Kue,  
 A. Kunitsa,  T. Kus,  A. Landau,  K. V. Lawler,  D. Lefrancois,  S. Lehtola,  
 Rain Li,  Shaozhi Li,  Yi-Pei Li,  Jiashu Liang,  M. Liebenthal,  
 Hung-Hsuan Lin,  You-Sheng Lin,  Fenglai Liu,  Kuan-Yu Liu,  
 M. Loipersberger,  A. Luenser,  C. Malbon,  A. Manjanath,  P. Manohar,  
 E. Mansoor,  S. F. Manzer,  Shan-Ping Mao,  A. V. Marenich,  T. Markovich,  
 S. Mason,  F. Matz,  S. A. Maurer,  P. F. McLaughlin,  M. F. S. J. Menger,  
 J.-M. Mewes,  S. A. Mewes,  P. Morgante,  Mohammad Mostafanejad,  
 J. W. Mullinax,  K. J. Oosterbaan,  G. Paran,  V. Parravicini,  
 Alexander C. Paul,  Suranjan K. Paul,  F. Pavosevic,  Zheng Pei,  S. Prager,  
 E. I. Proynov,  E. Ramos,  B. Rana,  A. E. Rask,  A. Rettig,  R. M. Richard,  
 F. Rob,  E. Rossomme,  T. Scheele,  M. Scheurer,  M. Schneider,  
 P. E. Schneider,  N. Sergueev,  S. M. Sharada,  Hengyuan Shen,  
 W. Skomorowski,  D. W. Small,  C. J. Stein,  Yingli Su,  Yu-Chuan Su,  
 E. J. Sundstrom,  Zhen Tao,  J. Thirman,  Hung-Yi Tsai,  T. Tsuchimochi,  
 N. M. Tubman,  C. Utku,  S. P. Veccham,  O. Vydrov,  J. Wenzel,  
 Jonathan Wong,  J. Witte,  A. Yamada,  Chou-Hsun Yang,  Kun Yao,  
 S. Yeganeh,  S. R. Yost,  A. Zech,  F. Zeller,  Igor Ying Zhang,  
 Xing Zhang,  Yu Zhang,  D. Zuev,  A. Aspuru-Guzik,  A. T. Bell,  
 N. A. Besley,  K. B. Bravaya,  B. R. Brooks,  D. Casanova,  Jeng-Da Chai,  
 Hsing-Ta Chen,  S. Coriani,  C. J. Cramer,  A. E. DePrince, III,  
 R. A. DiStasio Jr.,  A. Dreuw,  B. D. Dunietz,  T. R. Furlani,  
 W. A. Goddard III,  S. Grimme,  S. Hammes-Schiffer,  T. Head-Gordon,  
 W. J. Hehre,  Chao-Ping Hsu,  T.-C. Jagau,  Yousung Jung,  A. Klamt,  
 Jing Kong,  D. S. Lambrecht,  Xiangyuan Li,  WanZhen Liang,  N. J. Mayhall,  
 C. W. McCurdy,  J. B. Neaton,  T. Neudecker,  C. Ochsenfeld,  
 J. A. Parkhill,  R. Peverati,  V. A. Rassolov,  Haisheng Ren,  Yihan Shao,  
 L. V. Slipchenko,  R. P. Steele,  J. E. Subotnik,  A. J. W. Thom,  
 A. Tkatchenko,  D. G. Truhlar,  T. Van Voorhis,  Fan Wang,  
 T. A. Wesolowski,  K. B. Whaley,  H. L. Woodcock III,  P. M. Zimmerman,  
 S. Faraji,  P. M. W. Gill,  M. Head-Gordon,  J. M. Herbert,  A. I. Krylov

 Contributors to earlier versions of Q-Chem not listed above: 
 R. D. Adamson,  B. Austin,  R. Baer,  J. Baker,  G. J. O. Beran,  
 K. Brandhorst,  S. T. Brown,  E. F. C. Byrd,  Arup K. Chakraborty,  
 G. K. L. Chan,  Chun-Min Chang,  Yunqing Chen,  C.-L. Cheng,  
 Siu Hung Chien,  D. M. Chipman,  D. L. Crittenden,  H. Dachsel,  
 R. J. Doerksen,  A. D. Dutoi,  R. G. Edgar,  J. Fosso-Tande,  
 L. Fusti-Molnar,  D. Ghosh,  A. Ghysels,  A. Golubeva-Zadorozhnaya,  
 J. Gonthier,  M. S. Gordon,  S. R. Gwaltney,  G. Hawkins,  J. E. Herr,  
 A. Heyden,  S. Hirata,  E. G. Hohenstein,  G. Kedziora,  F. J. Keil,  
 C. Kelley,  Jihan Kim,  R. A. King,  R. Z. Khaliullin,  P. P. Korambath,  
 W. Kurlancheek,  A. Laurent,  A. M. Lee,  M. S. Lee,  S. V. Levchenko,  
 Ching Yeh Lin,  D. Liotard,  E. Livshits,  R. C. Lochan,  I. Lotan,  
 L. A. Martinez-Martinez,  P. E. Maslen,  N. Nair,  D. P. O'Neill,  
 D. Neuhauser,  E. Neuscamman,  C. M. Oana,  R. Olivares-Amaya,  R. Olson,  
 T. M. Perrine,  B. Peters,  P. A. Pieniazek,  A. Prociuk,  Y. M. Rhee,  
 J. Ritchie,  M. A. Rohrdanz,  E. Rosta,  N. J. Russ,  H. F. Schaefer III,  
 M. W. Schmidt,  N. E. Schultz,  S. Sharma,  N. Shenvi,  C. D. Sherrill,  
 A. C. Simmonett,  A. Sodt,  T. Stein,  D. Stuck,  K. S. Thanthiriwatte,  
 V. Vanovschi,  L. Vogt,  Tao Wang,  A. Warshel,  M. A. Watson,  
 C. F. Williams,  Q. Wu,  X. Xu,  Jun Yang,  W. Zhang,  Yan Zhao

   Please cite Q-Chem as follows:
  "Software for the frontiers of quantum chemistry:
   An overview of developments in the Q-Chem 5 package"
   J. Chem. Phys. 155, 084801 (2021)
   https://doi.org/10.1063/5.0055522 (open access)

 Q-Chem 6.0.2 for Intel X86 EM64T Linux

 Parts of Q-Chem use Armadillo 9.900.5 (Nocturnal Misbehaviour).
 http://arma.sourceforge.net/

 Q-Chem begins on Tue Apr 25 18:08:13 2023  

 Host: login13
0

     Scratch files written to /pscratch/sd/j/jsliang/QC_scratch/qchem194625//
 Processing $rem in /global/cfs/cdirs/mp54/qchem602//config/preferences:
 Processing $rem in /global/homes/j/jsliang/.qchemrc:

 Checking the input file for inconsistencies... 	...done.

--------------------------------------------------------------
User input:
--------------------------------------------------------------
$molecule
0 1
H 0.0 0.0 0.0
H 1.4 0.0 0.0
H 0.0 0.0 1.4
H 1.4 0.0 1.4
H 0.0 0.0 2.8
H 1.4 0.0 2.8
H 0.0 0.0 4.2
H 1.4 0.0 4.2
H 0.0 0.0 5.6
H 1.4 0.0 5.6
H 0.0 0.0 7.0
H 1.4 0.0 7.0
H 0.0 0.0 8.4
H 1.4 0.0 8.4
H 0.0 0.0 9.8
H 1.4 0.0 9.8
H 0.0 0.0 11.2
H 1.4 0.0 11.2
H 0.0 0.0 12.6
H 1.4 0.0 12.6
$end

$rem
input_bohr true
method hf
basis 6-311G

MAX_SCF_CYCLES 50
THRESH  14
SCF_CONVERGENCE  6

SYM_IGNORE true
SYMMETRY FALSE

IPRINT 4
SCF_FINAL_PRINT 4
ham_debug_print = 4
print_xc_time 4
PRINT_SCF_TIME 4
$end
--------------------------------------------------------------
 ----------------------------------------------------------------
             Standard Nuclear Orientation (Bohr)
    I     Atom           X                Y                Z
 ----------------------------------------------------------------
    1      H       0.0000000000     0.0000000000     0.0000000000
    2      H       1.4000000000     0.0000000000     0.0000000000
    3      H       0.0000000000     0.0000000000     1.4000000000
    4      H       1.4000000000     0.0000000000     1.4000000000
    5      H       0.0000000000     0.0000000000     2.8000000000
    6      H       1.4000000000     0.0000000000     2.8000000000
    7      H       0.0000000000     0.0000000000     4.2000000000
    8      H       1.4000000000     0.0000000000     4.2000000000
    9      H       0.0000000000     0.0000000000     5.6000000000
   10      H       1.4000000000     0.0000000000     5.6000000000
   11      H       0.0000000000     0.0000000000     7.0000000000
   12      H       1.4000000000     0.0000000000     7.0000000000
   13      H       0.0000000000     0.0000000000     8.4000000000
   14      H       1.4000000000     0.0000000000     8.4000000000
   15      H       0.0000000000     0.0000000000     9.8000000000
   16      H       1.4000000000     0.0000000000     9.8000000000
   17      H       0.0000000000     0.0000000000    11.2000000000
   18      H       1.4000000000     0.0000000000    11.2000000000
   19      H       0.0000000000     0.0000000000    12.6000000000
   20      H       1.4000000000     0.0000000000    12.6000000000
 ----------------------------------------------------------------
 Nuclear Repulsion Energy =          57.60157448 hartrees
 There are       10 alpha and       10 beta electrons
 Requested basis set is 6-311G
 There are 60 shells and 60 basis functions

 Total QAlloc Memory Limit   2000 MB
 Mega-Array Size       188 MB
 MEM_STATIC part       192 MB

 A cutoff of  1.0D-14 yielded   1766 shell pairs
 There are      1766 function pairs
 Smallest overlap matrix eigenvalue = 1.15E-07
 Linear dependence detected in AO basis
 Tighter screening thresholds may be required for diffuse basis sets
 Use S2THRESH > 14 and THRESH = 14 in case of SCF convergence issues
 Number of orthogonalized atomic orbitals = 59
 Maximum deviation from orthogonality = 1.855E-10

 Scale SEOQF with 1.000000e+00/1.000000e+00/1.000000e-02

 Standard Electronic Orientation quadrupole field applied
 Nucleus-field energy     =    -0.0000000014 hartrees
 Guess from superposition of atomic densities
 Warning:  Energy on first SCF cycle will be non-variational
 SAD guess density has 20.000000 electrons

 -----------------------------------------------------------------------
  General SCF calculation program by
  Eric Jon Sundstrom, Paul Horn, Yuezhi Mao, Dmitri Zuev, Alec White,
  David Stuck, Shaama M.S., Shane Yost, Joonho Lee, David Small,
  Daniel Levine, Susi Lehtola, Hugh Burton, Evgeny Epifanovsky,
  Bang C. Huynh
 -----------------------------------------------------------------------
 Hartree-Fock
 Number of OpenMP threads: 1
 List of terms in Hamiltonian: inc_jk, qchem_hcore
 Prioritized algorithm options for all energy terms with memory requirement: 
  inc_jk:
   name: qchem, static memory required: 0, dynamic memory required: 0
   name: libfock, static memory required: 42384, dynamic memory required: 17564992
  qchem_hcore:
   name: qchem, static memory required: 0, dynamic memory required: 0

 Final selected algorithms for all energy terms:
  inc_jk: qchem
  qchem_hcore: qchem
 A restricted SCF calculation will be
 performed using DIIS
 SCF converges when DIIS error is below 1.0e-06
 ---------------------------------------
  Cycle       Energy         DIIS error
 ---------------------------------------
    1     -14.9216450049      1.24e-01  
    2      -8.6386077126      1.08e-02  
    3      -8.7033758912      2.35e-03  
    4      -8.7072857063      8.65e-04  
    5      -8.7080825410      2.05e-04  
    6      -8.7081519899      7.58e-05  
    7      -8.7081660064      1.95e-05  
    8      -8.7081674283      7.79e-06  
    9      -8.7081677004      1.60e-06  
   10      -8.7081677097      2.49e-07  Convergence criterion met
 ---------------------------------------
 DFT Correlation    Energy =   0.00000000000000
 DFT Exchange       Energy =   0.00000000000000
 HF Exchange        Energy =  -7.59466648507438
 Kinetic            Energy =   0.00000000000000
 Nuclear Attraction Energy =   0.00000000000000
 One-Electron       Energy = -117.54562362860311
 Total Coulomb      Energy =  58.83054792598917
 Final Alpha MO Eigenvalues
            1           2           3           4           5           6
    1  -1.4143804  -1.3218930  -1.1786553  -0.9836720  -0.7459262  -0.5330012
            7           8           9          10          11          12
    1  -0.4705545  -0.4316156  -0.2798858  -0.1773485   0.0960778   0.1773204
           13          14          15          16          17          18
    1   0.1840796   0.2408023   0.2580905   0.2733930   0.3211241   0.3215946
           19          20          21          22          23          24
    1   0.3566291   0.4038701   0.4307272   0.4545708   0.4810431   0.4957050
           25          26          27          28          29          30
    1   0.6022401   0.6192446   0.6379070   0.7397060   0.7512370   0.8135191
           31          32          33          34          35          36
    1   0.8578725   0.9843770   0.9928964   1.1147937   1.1728879   1.1989128
           37          38          39          40          41          42
    1   1.2908407   1.5160016   1.9414018   2.1637812   2.2452198   2.2598452
           43          44          45          46          47          48
    1   2.3143404   2.3851297   2.4048542   2.4676414   2.5907464   2.6328725
           49          50          51          52          53          54
    1   2.8007375   2.8608768   3.0268457   3.0415185   3.2364785   3.2810116
           55          56          57          58          59
    1   3.3306350   3.3366177   3.4711862   3.5081840   3.7534439
 Final Alpha MO Coefficients
            1           2           3           4           5           6
    1  -0.0208158  -0.0438139  -0.0675918  -0.0897666  -0.1050687  -0.0202885
    2  -0.0081184  -0.0186643  -0.0393438  -0.0716901  -0.1294696  -0.0247017
    3  -0.0013900   0.0088403   0.0004934   0.0191294  -0.0486673  -0.0019044
    4  -0.0208158  -0.0438139  -0.0675918  -0.0897666  -0.1050687   0.0202885
    5  -0.0081184  -0.0186643  -0.0393438  -0.0716901  -0.1294696   0.0247017
    6  -0.0013900   0.0088403   0.0004934   0.0191294  -0.0486673   0.0019044
    7  -0.0488816  -0.0884305  -0.1049446  -0.0866142  -0.0342352  -0.0471007
    8  -0.0379977  -0.0821558  -0.1162392  -0.1362775  -0.0892011  -0.1183810
    9  -0.0038237  -0.0798285  -0.0636768  -0.2421797  -0.0358252  -0.1297501
   10  -0.0488816  -0.0884305  -0.1049446  -0.0866142  -0.0342352   0.0471007
   11  -0.0379977  -0.0821558  -0.1162392  -0.1362775  -0.0892011   0.1183810
   12  -0.0038237  -0.0798285  -0.0636768  -0.2421797  -0.0358252   0.1297501
   13  -0.0744986  -0.1059997  -0.0704487   0.0135995   0.0882863  -0.0663133
   14  -0.0517916  -0.0775088  -0.0628689   0.0307213   0.1595932  -0.1350188
   15   0.0019657   0.2062074   0.1501031   0.7013722   0.2510785   0.0191346
   16  -0.0744986  -0.1059997  -0.0704487   0.0135995   0.0882863   0.0663133
   17  -0.0517916  -0.0775088  -0.0628689   0.0307213   0.1595932   0.1350188
   18   0.0019657   0.2062074   0.1501031   0.7013722   0.2510785  -0.0191346
   19  -0.0972055  -0.0867001   0.0213981   0.1075260   0.0643263  -0.0809215
   20  -0.0723037  -0.0782805   0.0190694   0.1321410   0.1156868  -0.1688171
   21   0.0038243  -0.3491097  -0.1655026  -1.1947076  -0.3776362  -0.1527406
   22  -0.0972055  -0.0867001   0.0213981   0.1075260   0.0643263   0.0809215
   23  -0.0723037  -0.0782805   0.0190694   0.1321410   0.1156868   0.1688171
   24   0.0038243  -0.3491097  -0.1655026  -1.1947076  -0.3776362   0.1527406
   25  -0.1055674  -0.0315458   0.0945413   0.0571101  -0.0788770  -0.0935134
   26  -0.0765587  -0.0202870   0.0939971   0.0750081  -0.1402039  -0.2082898
   27  -0.0044666   0.4477771   0.0717505   1.4765144   0.1869519  -0.0983856
   28  -0.1055674  -0.0315458   0.0945413   0.0571101  -0.0788770   0.0935134
   29  -0.0765587  -0.0202870   0.0939971   0.0750081  -0.1402039   0.2082898
   30  -0.0044666   0.4477771   0.0717505   1.4765144   0.1869519   0.0983856
   31  -0.1055674   0.0315458   0.0945413  -0.0571101  -0.0788770  -0.0935134
   32  -0.0765587   0.0202870   0.0939971  -0.0750081  -0.1402039  -0.2082898
   33  -0.0044666  -0.4477771   0.0717505  -1.4765144   0.1869519  -0.0983856
   34  -0.1055674   0.0315458   0.0945413  -0.0571101  -0.0788770   0.0935134
   35  -0.0765587   0.0202870   0.0939971  -0.0750081  -0.1402039   0.2082898
   36  -0.0044666  -0.4477771   0.0717505  -1.4765144   0.1869519   0.0983856
   37  -0.0972055   0.0867001   0.0213981  -0.1075260   0.0643263  -0.0809215
   38  -0.0723037   0.0782805   0.0190694  -0.1321410   0.1156868  -0.1688171
   39   0.0038243   0.3491097  -0.1655026   1.1947076  -0.3776362  -0.1527406
   40  -0.0972055   0.0867001   0.0213981  -0.1075260   0.0643263   0.0809215
   41  -0.0723037   0.0782805   0.0190694  -0.1321410   0.1156868   0.1688171
   42   0.0038243   0.3491097  -0.1655026   1.1947076  -0.3776362   0.1527406
   43  -0.0744986   0.1059997  -0.0704487  -0.0135995   0.0882863  -0.0663133
   44  -0.0517916   0.0775088  -0.0628689  -0.0307213   0.1595932  -0.1350188
   45   0.0019657  -0.2062074   0.1501031  -0.7013722   0.2510785   0.0191346
   46  -0.0744986   0.1059997  -0.0704487  -0.0135995   0.0882863   0.0663133
   47  -0.0517916   0.0775088  -0.0628689  -0.0307213   0.1595932   0.1350188
   48   0.0019657  -0.2062074   0.1501031  -0.7013722   0.2510785  -0.0191346
   49  -0.0488816   0.0884305  -0.1049446   0.0866142  -0.0342352  -0.0471007
   50  -0.0379977   0.0821558  -0.1162392   0.1362775  -0.0892011  -0.1183810
   51  -0.0038237   0.0798285  -0.0636768   0.2421797  -0.0358252  -0.1297501
   52  -0.0488816   0.0884305  -0.1049446   0.0866142  -0.0342352   0.0471007
   53  -0.0379977   0.0821558  -0.1162392   0.1362775  -0.0892011   0.1183810
   54  -0.0038237   0.0798285  -0.0636768   0.2421797  -0.0358252   0.1297501
   55  -0.0208158   0.0438139  -0.0675918   0.0897666  -0.1050687  -0.0202885
   56  -0.0081184   0.0186643  -0.0393438   0.0716901  -0.1294696  -0.0247017
   57  -0.0013900  -0.0088403   0.0004934  -0.0191294  -0.0486673  -0.0019044
   58  -0.0208158   0.0438139  -0.0675918   0.0897666  -0.1050687   0.0202885
   59  -0.0081184   0.0186643  -0.0393438   0.0716901  -0.1294696   0.0247017
   60  -0.0013900  -0.0088403   0.0004934  -0.0191294  -0.0486673   0.0019044
            7           8           9          10          11          12
    1  -0.1045467  -0.0412277  -0.0526832  -0.0736594   0.0668454   0.0121254
    2  -0.1906614  -0.0549832  -0.0802324  -0.2126836   0.1006915   0.1103709
    3  -0.1496703  -0.0432544  -0.0823695  -0.5666769   1.0037941  -0.0292860
    4  -0.1045467   0.0412277   0.0526832  -0.0736594  -0.0668454   0.0121254
    5  -0.1906614   0.0549832   0.0802324  -0.2126836  -0.1006915   0.1103709
    6  -0.1496703   0.0432544   0.0823695  -0.5666769  -1.0037941  -0.0292860
    7   0.0388401  -0.0838233  -0.0872206   0.0858317   0.0522063   0.0038769
    8   0.0288628  -0.2322531  -0.2676278   0.2389760   0.2412508   0.0872284
    9   0.0417978  -0.2040890  -0.4217518   1.2885979  -0.3181850  -0.1522883
   10   0.0388401   0.0838233   0.0872206   0.0858317  -0.0522063   0.0038769
   11   0.0288628   0.2322531   0.2676278   0.2389760  -0.2412508   0.0872284
   12   0.0417978   0.2040890   0.4217518   1.2885979   0.3181851  -0.1522883
   13   0.0909616  -0.0923650  -0.0596866   0.0227076  -0.0266822   0.0032868
   14   0.2784504  -0.1997873  -0.1525479   0.1419604  -0.1410585   0.1263339
   15   0.5166161  -0.1271436   0.1000565  -1.8955494   0.4198838  -0.0733219
   16   0.0909616   0.0923650   0.0596866   0.0227076   0.0266822   0.0032868
   17   0.2784504   0.1997873   0.1525479   0.1419604   0.1410585   0.1263339
   18   0.5166161   0.1271436  -0.1000565  -1.8955494  -0.4198838  -0.0733219
   19  -0.0566949  -0.0650228   0.0196017  -0.1024706  -0.0873640   0.0234874
   20  -0.1909452  -0.1653588   0.0399214  -0.4086948  -0.2357166   0.2297198
   21  -1.4343509  -0.0937064  -0.2928534   1.7980376  -0.6258347  -0.2542355
   22  -0.0566949   0.0650228  -0.0196017  -0.1024706   0.0873640   0.0234874
   23  -0.1909452   0.1653588  -0.0399214  -0.4086948   0.2357166   0.2297198
   24  -1.4343509   0.0937064   0.2928534   1.7980376   0.6258347  -0.2542355
   25  -0.0729511  -0.0228310   0.0865967   0.0578003  -0.0452390   0.0091760
   26  -0.1315341  -0.0259395   0.2462489   0.2222708  -0.1803185   0.1844352
   27   2.1826217  -0.0493238   0.4323449  -0.7480146  -0.7530482  -0.1766628
   28  -0.0729511   0.0228310  -0.0865967   0.0578003   0.0452390   0.0091760
   29  -0.1315341   0.0259395  -0.2462489   0.2222708   0.1803185   0.1844352
   30   2.1826217   0.0493238  -0.4323449  -0.7480146   0.7530482  -0.1766628
   31   0.0729511   0.0228310   0.0865967   0.0578003   0.0452390   0.0091760
   32   0.1315341   0.0259395   0.2462489   0.2222708   0.1803185   0.1844352
   33  -2.1826217   0.0493238   0.4323449  -0.7480147   0.7530482  -0.1766625
   34   0.0729511  -0.0228310  -0.0865967   0.0578003  -0.0452390   0.0091760
   35   0.1315341  -0.0259395  -0.2462489   0.2222708  -0.1803185   0.1844352
   36  -2.1826217  -0.0493238  -0.4323449  -0.7480147  -0.7530481  -0.1766625
   37   0.0566949   0.0650228   0.0196017  -0.1024706   0.0873640   0.0234874
   38   0.1909452   0.1653588   0.0399214  -0.4086948   0.2357166   0.2297198
   39   1.4343509   0.0937064  -0.2928534   1.7980377   0.6258347  -0.2542357
   40   0.0566949  -0.0650228  -0.0196017  -0.1024706  -0.0873640   0.0234874
   41   0.1909452  -0.1653588  -0.0399214  -0.4086948  -0.2357166   0.2297198
   42   1.4343509  -0.0937064   0.2928534   1.7980377  -0.6258348  -0.2542357
   43  -0.0909616   0.0923650  -0.0596866   0.0227076   0.0266822   0.0032868
   44  -0.2784504   0.1997873  -0.1525479   0.1419604   0.1410585   0.1263339
   45  -0.5166161   0.1271436   0.1000565  -1.8955494  -0.4198838  -0.0733217
   46  -0.0909616  -0.0923650   0.0596866   0.0227076  -0.0266822   0.0032868
   47  -0.2784504  -0.1997873   0.1525479   0.1419604  -0.1410585   0.1263339
   48  -0.5166161  -0.1271436  -0.1000565  -1.8955494   0.4198838  -0.0733217
   49  -0.0388401   0.0838233  -0.0872206   0.0858317  -0.0522063   0.0038769
   50  -0.0288628   0.2322531  -0.2676278   0.2389760  -0.2412508   0.0872284
   51  -0.0417978   0.2040890  -0.4217518   1.2885979   0.3181851  -0.1522883
   52  -0.0388401  -0.0838233   0.0872206   0.0858317   0.0522063   0.0038769
   53  -0.0288628  -0.2322531   0.2676278   0.2389760   0.2412508   0.0872284
   54  -0.0417978  -0.2040890   0.4217518   1.2885979  -0.3181851  -0.1522883
   55   0.1045467   0.0412277  -0.0526832  -0.0736594  -0.0668454   0.0121254
   56   0.1906614   0.0549832  -0.0802324  -0.2126836  -0.1006915   0.1103709
   57   0.1496703   0.0432544  -0.0823695  -0.5666769  -1.0037941  -0.0292860
   58   0.1045467  -0.0412277   0.0526832  -0.0736594   0.0668454   0.0121254
   59   0.1906614  -0.0549832   0.0802324  -0.2126836   0.1006915   0.1103709
   60   0.1496703  -0.0432544   0.0823695  -0.5666769   1.0037941  -0.0292860
           13          14          15          16          17          18
    1   0.0135471   0.0490639   0.0027666   0.0457853   0.0201632  -0.0041506
    2   0.0827029  -0.0241366   0.1547505   0.3192651   0.1124701  -0.3087120
    3  -2.2453548   4.5344706   1.9986127  -1.9815178   1.1420212   5.4974456
    4   0.0135471  -0.0490639   0.0027666   0.0457853  -0.0201632   0.0041506
    5   0.0827029   0.0241366   0.1547505   0.3192651  -0.1124701   0.3087120
    6  -2.2453548  -4.5344707   1.9986128  -1.9815178  -1.1420212  -5.4974456
    7   0.0479419  -0.0130502  -0.0106577  -0.0019271   0.0191132  -0.0647727
    8   0.2973861   0.0427102   0.0377117  -0.0156308   0.2054107  -0.1301424
    9   6.9039200  -7.7483961  -6.9074088   4.6148803  -2.6635097  -8.4448583
   10   0.0479419   0.0130502  -0.0106577  -0.0019271  -0.0191132   0.0647727
   11   0.2973861  -0.0427102   0.0377117  -0.0156308  -0.2054107   0.1301424
   12   6.9039202   7.7483962  -6.9074090   4.6148804   2.6635097   8.4448583
   13  -0.0432240  -0.0589912   0.0336700  -0.0385435   0.0099941  -0.0251222
   14  -0.1073618  -0.3844423   0.2976982  -0.0641309   0.1696320  -0.3892262
   15 -14.2462021   9.7988638  12.9411262  -6.8111953   2.7808122   6.0733007
   16  -0.0432240   0.0589912   0.0336700  -0.0385435  -0.0099941   0.0251222
   17  -0.1073618   0.3844423   0.2976982  -0.0641309  -0.1696320   0.3892262
   18 -14.2462025  -9.7988641  12.9411265  -6.8111954  -2.7808122  -6.0733006
   19   0.0083968  -0.0320915   0.0100162   0.0476633   0.0203801   0.0328157
   20  -0.0233328  -0.0443551   0.2290627   0.0908348   0.3036391   0.1929472
   21  21.4962458  -9.3506093 -19.8693308   6.1986499  -3.9312952   0.4482560
   22   0.0083968   0.0320915   0.0100162   0.0476633  -0.0203801  -0.0328157
   23  -0.0233328   0.0443551   0.2290627   0.0908348  -0.3036391  -0.1929472
   24  21.4962462   9.3506097 -19.8693312   6.1986500   3.9312953  -0.4482561
   25   0.0420593   0.0397666  -0.0153169  -0.0296754   0.0450652   0.0278101
   26   0.3288329   0.1066396  -0.1178228  -0.1842301   0.4048220   0.0555073
   27 -26.2569296   4.2075362  23.5568950  -2.3137815   0.7858343  -3.9301337
   28   0.0420593  -0.0397666  -0.0153169  -0.0296754  -0.0450652  -0.0278101
   29   0.3288329  -0.1066396  -0.1178228  -0.1842301  -0.4048220  -0.0555073
   30 -26.2569298  -4.2075366  23.5568952  -2.3137816  -0.7858344   3.9301338
   31  -0.0420593   0.0397666   0.0153169  -0.0296754   0.0450652  -0.0278101
   32  -0.3288329   0.1066396   0.1178228  -0.1842301   0.4048220  -0.0555073
   33  26.2569298   4.2075366 -23.5568952  -2.3137823   0.7858342   3.9301336
   34  -0.0420593  -0.0397666   0.0153169  -0.0296754  -0.0450652   0.0278101
   35  -0.3288329  -0.1066396   0.1178228  -0.1842301  -0.4048220   0.0555073
   36  26.2569297  -4.2075362 -23.5568951  -2.3137824  -0.7858342  -3.9301337
   37  -0.0083968  -0.0320915  -0.0100162   0.0476633   0.0203801  -0.0328157
   38   0.0233328  -0.0443551  -0.2290627   0.0908348   0.3036391  -0.1929472
   39 -21.4962463  -9.3506096  19.8693313   6.1986505  -3.9312952  -0.4482559
   40  -0.0083968   0.0320915  -0.0100162   0.0476633  -0.0203801   0.0328157
   41   0.0233328   0.0443551  -0.2290627   0.0908348  -0.3036391   0.1929472
   42 -21.4962459   9.3506094  19.8693310   6.1986506   3.9312952   0.4482559
   43   0.0432240  -0.0589912  -0.0336700  -0.0385435   0.0099941   0.0251222
   44   0.1073618  -0.3844423  -0.2976982  -0.0641309   0.1696319   0.3892262
   45  14.2462026   9.7988641 -12.9411267  -6.8111956   2.7808125  -6.0733009
   46   0.0432240   0.0589912  -0.0336700  -0.0385435  -0.0099941  -0.0251222
   47   0.1073618   0.3844423  -0.2976982  -0.0641309  -0.1696319  -0.3892262
   48  14.2462023  -9.7988639 -12.9411264  -6.8111958  -2.7808125   6.0733008
   49  -0.0479419  -0.0130502   0.0106577  -0.0019271   0.0191132   0.0647727
   50  -0.2973861   0.0427102  -0.0377117  -0.0156308   0.2054107   0.1301424
   51  -6.9039203  -7.7483962   6.9074090   4.6148804  -2.6635101   8.4448584
   52  -0.0479419   0.0130502   0.0106577  -0.0019271  -0.0191132  -0.0647727
   53  -0.2973861  -0.0427102  -0.0377117  -0.0156308  -0.2054107  -0.1301424
   54  -6.9039201   7.7483962   6.9074089   4.6148805   2.6635100  -8.4448584
   55  -0.0135471   0.0490639  -0.0027666   0.0457853   0.0201632   0.0041506
   56  -0.0827029  -0.0241366  -0.1547505   0.3192651   0.1124700   0.3087120
   57   2.2453548   4.5344706  -1.9986128  -1.9815178   1.1420214  -5.4974456
   58  -0.0135471  -0.0490639  -0.0027666   0.0457853  -0.0201632  -0.0041506
   59  -0.0827029   0.0241366  -0.1547505   0.3192651  -0.1124700  -0.3087120
   60   2.2453548  -4.5344706  -1.9986128  -1.9815178  -1.1420214   5.4974456
           19          20          21          22          23          24
    1   0.0084432   0.0176502   0.0562009   0.0208397   0.0508064  -0.0203622
    2  -0.1526205   0.0568159   0.4167925  -0.2327637   0.5412165  -0.3129487
    3  -2.4004825   4.6549676 -10.0447789  -4.6234778  -1.3676866  -7.6389257
    4   0.0084432  -0.0176502  -0.0562009   0.0208397   0.0508064   0.0203622
    5  -0.1526205  -0.0568159  -0.4167925  -0.2327637   0.5412165   0.3129487
    6  -2.4004826  -4.6549676  10.0447790  -4.6234779  -1.3676867   7.6389257
    7  -0.0084396   0.0046244   0.0489517  -0.0468227  -0.0806366  -0.0283282
    8  -0.2605072   0.3877472   0.0826386  -0.2402980  -0.4034823  -0.5204633
    9   7.2856715  -9.1302514  26.9209441  18.7529640   4.7924782  22.9444257
   10  -0.0084396  -0.0046244  -0.0489517  -0.0468227  -0.0806366   0.0283282
   11  -0.2605072  -0.3877472  -0.0826386  -0.2402980  -0.4034824   0.5204632
   12   7.2856718   9.1302514 -26.9209445  18.7529646   4.7924788 -22.9444256
   13  -0.0252690   0.0260072  -0.0561647   0.0260494   0.0427825  -0.0222140
   14  -0.0996470   0.1917323   0.0055378   0.2586162   0.2759416  -0.0826784
   15  -9.5877366   5.3379467 -36.9229244 -37.7869533 -11.9623792 -29.3436414
   16  -0.0252690  -0.0260072   0.0561647   0.0260494   0.0427825   0.0222140
   17  -0.0996470  -0.1917323  -0.0055378   0.2586162   0.2759416   0.0826784
   18  -9.5877371  -5.3379466  36.9229254 -37.7869545 -11.9623801  29.3436413
   19   0.0221909   0.0403933  -0.0463398   0.0264635   0.0203753   0.0123723
   20   0.0348821   0.4309198  -0.4585244   0.1401391  -0.1083670  -0.0313262
   21   8.7061975  -0.9428845  29.9653911  55.7429417  19.9277825  26.3510739
   22   0.0221909  -0.0403933   0.0463398   0.0264635   0.0203753  -0.0123723
   23   0.0348821  -0.4309198   0.4585244   0.1401391  -0.1083670   0.0313262
   24   8.7061979   0.9428844 -29.9653927  55.7429430  19.9277834 -26.3510739
   25   0.0032631   0.0204860   0.0369219  -0.0391632  -0.0896058   0.0275938
   26   0.2124686   0.1723282   0.2019091   0.1112760  -0.4623089   0.4399488
   27  -3.9018214  -4.7661942 -10.7849803 -68.1022915 -23.9304478 -11.9404193
   28   0.0032631  -0.0204860  -0.0369219  -0.0391632  -0.0896058  -0.0275938
   29   0.2124686  -0.1723282  -0.2019091   0.1112760  -0.4623089  -0.4399488
   30  -3.9018216   4.7661943  10.7849821 -68.1022921 -23.9304482  11.9404193
   31   0.0032631  -0.0204860   0.0369219   0.0391632   0.0896058   0.0275938
   32   0.2124686  -0.1723282   0.2019091  -0.1112760   0.4623089   0.4399488
   33  -3.9018229   4.7661940 -10.7849820  68.1022923  23.9304483 -11.9404192
   34   0.0032631   0.0204860  -0.0369219   0.0391632   0.0896058  -0.0275938
   35   0.2124686   0.1723282  -0.2019091  -0.1112760   0.4623089  -0.4399488
   36  -3.9018231  -4.7661941  10.7849802  68.1022916  23.9304479  11.9404192
   37   0.0221909  -0.0403933  -0.0463398  -0.0264635  -0.0203753   0.0123723
   38   0.0348821  -0.4309198  -0.4585244  -0.1401391   0.1083670  -0.0313262
   39   8.7061986   0.9428850  29.9653926 -55.7429435 -19.9277836  26.3510739
   40   0.0221909   0.0403933   0.0463398  -0.0264635  -0.0203753  -0.0123723
   41   0.0348821   0.4309198   0.4585244  -0.1401391   0.1083670   0.0313262
   42   8.7061991  -0.9428849 -29.9653912 -55.7429421 -19.9277827 -26.3510740
   43  -0.0252690  -0.0260072  -0.0561647  -0.0260494  -0.0427825  -0.0222140
   44  -0.0996470  -0.1917323   0.0055378  -0.2586162  -0.2759416  -0.0826784
   45  -9.5877373  -5.3379472 -36.9229255  37.7869549  11.9623803 -29.3436415
   46  -0.0252690   0.0260072   0.0561647  -0.0260494  -0.0427825   0.0222140
   47  -0.0996470   0.1917323  -0.0055378  -0.2586162  -0.2759416   0.0826784
   48  -9.5877378   5.3379471  36.9229246  37.7869538  11.9623794  29.3436417
   49  -0.0084396  -0.0046244   0.0489517   0.0468227   0.0806366  -0.0283282
   50  -0.2605072  -0.3877472   0.0826386   0.2402980   0.4034824  -0.5204633
   51   7.2856718   9.1302517  26.9209446 -18.7529648  -4.7924789  22.9444258
   52  -0.0084396   0.0046244  -0.0489517   0.0468227   0.0806366   0.0283282
   53  -0.2605072   0.3877472  -0.0826386   0.2402980   0.4034823   0.5204633
   54   7.2856721  -9.1302517 -26.9209443 -18.7529642  -4.7924783 -22.9444259
   55   0.0084432  -0.0176502   0.0562009  -0.0208397  -0.0508064  -0.0203622
   56  -0.1526205  -0.0568159   0.4167925   0.2327637  -0.5412165  -0.3129487
   57  -2.4004825  -4.6549677 -10.0447790   4.6234780   1.3676868  -7.6389257
   58   0.0084432   0.0176502  -0.0562009  -0.0208397  -0.0508064   0.0203622
   59  -0.1526205   0.0568159  -0.4167925   0.2327637  -0.5412165   0.3129487
   60  -2.4004826   4.6549677  10.0447789   4.6234779   1.3676866   7.6389258
           25          26          27          28          29          30
    1  -0.0026591   0.0322001  -0.0650038   0.0098271   0.0065335   0.0053483
    2  -0.4402444   0.2193288  -0.8004313   0.6638858   0.4871685   0.5177007
    3  -3.4116177 -10.0806576  -0.0581806   5.2985706  14.2204495  -1.9409663
    4  -0.0026591  -0.0322001   0.0650038   0.0098271  -0.0065335   0.0053483
    5  -0.4402444  -0.2193288   0.8004313   0.6638859  -0.4871683   0.5177007
    6  -3.4116177  10.0806576   0.0581806   5.2985735 -14.2204486  -1.9409663
    7  -0.0003950  -0.0174330  -0.0103152  -0.0233408   0.0259739  -0.0739977
    8  -0.0484271  -0.6289722  -0.2047920  -0.6734688   0.3408318  -0.8492499
    9  13.4120993  27.2373764   0.8436025 -26.4741740 -54.2101389   7.2251278
   10  -0.0003950   0.0174330   0.0103152  -0.0233408  -0.0259740  -0.0739977
   11  -0.0484271   0.6289722   0.2047920  -0.6734688  -0.3408319  -0.8492499
   12  13.4120996 -27.2373764  -0.8436025 -26.4741853  54.2101345   7.2251277
   13   0.0167831  -0.0563504   0.0581703  -0.0047347  -0.0255958   0.0867705
   14   0.6107697   0.0968987   0.3633554  -0.2372145  -0.9160826   1.1430309
   15 -21.2104450 -26.1646599   3.6291070  61.2746880  88.4783576 -14.2043951
   16   0.0167831   0.0563504  -0.0581703  -0.0047347   0.0255958   0.0867705
   17   0.6107697  -0.0968987  -0.3633554  -0.2372147   0.9160825   1.1430309
   18 -21.2104458  26.1646598  -3.6291071  61.2747072 -88.4783478 -14.2043950
   19   0.0026648   0.0547319   0.0031234   0.0190404  -0.0570368  -0.0737060
   20  -0.1450961   0.4116064   0.3285428   0.6543057  -0.1233028  -1.1713795
   21  17.4446183   2.5334119  -4.0793500 -91.9528106 -78.3244484  16.0690226
   22   0.0026648  -0.0547319  -0.0031234   0.0190404   0.0570368  -0.0737060
   23  -0.1450961  -0.4116064  -0.3285428   0.6543057   0.1233029  -1.1713795
   24  17.4446192  -2.5334117   4.0793502 -91.9528285  78.3244341  16.0690227
   25  -0.0097917   0.0614142  -0.0224893  -0.0074924   0.0509755   0.0295433
   26  -0.1569582   0.3041214  -0.0215970  -0.2641351   0.4508308   0.5273840
   27  -6.1677377  18.3870611  -4.5964825 106.6843586  29.8296006  -7.2832626
   28  -0.0097917  -0.0614142   0.0224893  -0.0074924  -0.0509755   0.0295433
   29  -0.1569582  -0.3041214   0.0215970  -0.2641351  -0.4508308   0.5273840
   30  -6.1677381 -18.3870615   4.5964823 106.6843656 -29.8295844  -7.2832627
   31  -0.0097917  -0.0614142   0.0224893   0.0074924   0.0509755   0.0295433
   32  -0.1569582  -0.3041214   0.0215970   0.2641351   0.4508308   0.5273840
   33  -6.1677411 -18.3870602   4.5964824-106.6843662  29.8295841  -7.2832628
   34  -0.0097917   0.0614142  -0.0224893   0.0074924  -0.0509755   0.0295433
   35  -0.1569582   0.3041214  -0.0215970   0.2641352  -0.4508308   0.5273840
   36  -6.1677413  18.3870606  -4.5964821-106.6843591 -29.8296005  -7.2832629
   37   0.0026648  -0.0547319  -0.0031234  -0.0190404  -0.0570368  -0.0737060
   38  -0.1450961  -0.4116064  -0.3285428  -0.6543057  -0.1233029  -1.1713795
   39  17.4446209  -2.5334142   4.0793505  91.9528296 -78.3244341  16.0690225
   40   0.0026648   0.0547319   0.0031234  -0.0190404   0.0570368  -0.0737060
   41  -0.1450961   0.4116064   0.3285428  -0.6543057   0.1233028  -1.1713795
   42  17.4446218   2.5334138  -4.0793507  91.9528117  78.3244486  16.0690225
   43   0.0167831   0.0563504  -0.0581703   0.0047347  -0.0255958   0.0867705
   44   0.6107697  -0.0968987  -0.3633554   0.2372147  -0.9160825   1.1430309
   45 -21.2104464  26.1646620  -3.6291074 -61.2747079  88.4783479 -14.2043947
   46   0.0167831  -0.0563504   0.0581703   0.0047347   0.0255958   0.0867705
   47   0.6107697   0.0968987   0.3633554   0.2372145   0.9160826   1.1430309
   48 -21.2104474 -26.1646617   3.6291076 -61.2746889 -88.4783579 -14.2043946
   49  -0.0003950   0.0174330   0.0103152   0.0233408   0.0259740  -0.0739977
   50  -0.0484271   0.6289722   0.2047920   0.6734688   0.3408319  -0.8492499
   51  13.4120997 -27.2373776  -0.8436023  26.4741855 -54.2101346   7.2251275
   52  -0.0003950  -0.0174330  -0.0103152   0.0233408  -0.0259739  -0.0739977
   53  -0.0484271  -0.6289722  -0.2047920   0.6734688  -0.3408318  -0.8492499
   54  13.4121003  27.2373774   0.8436022  26.4741744  54.2101390   7.2251274
   55  -0.0026591  -0.0322001   0.0650038  -0.0098271   0.0065335   0.0053483
   56  -0.4402444  -0.2193288   0.8004313  -0.6638859   0.4871684   0.5177007
   57  -3.4116177  10.0806578   0.0581805  -5.2985736  14.2204486  -1.9409662
   58  -0.0026591   0.0322001  -0.0650038  -0.0098271  -0.0065335   0.0053483
   59  -0.4402444   0.2193288  -0.8004313  -0.6638858  -0.4871685   0.5177007
   60  -3.4116179 -10.0806578  -0.0581805  -5.2985707 -14.2204495  -1.9409662
           31          32          33          34          35          36
    1  -0.0538246   0.0262980   0.0000091   0.0234535  -0.0110505  -0.0038960
    2  -1.0057977   0.8872049  -0.6767166   0.0735476  -1.1549322   1.4966511
    3   5.7900332   8.8434369  -3.8572931   5.5240147 -13.8181088  -3.1969907
    4   0.0538246  -0.0262980   0.0000091   0.0234535   0.0110505   0.0038960
    5   1.0057977  -0.8872049  -0.6767166   0.0735478   1.1549322  -1.4966511
    6  -5.7900332  -8.8434369  -3.8572931   5.5240174  13.8181076   3.1969907
    7   0.0520478  -0.0305039   0.0539950  -0.0004580   0.0552355  -0.0771891
    8   0.5660597  -0.2227321   0.9292420  -0.4065829   1.1759298  -2.2834913
    9 -22.8321932 -33.5332442  19.2389715 -31.3251723  66.0122080   6.5266819
   10  -0.0520478   0.0305039   0.0539950  -0.0004580  -0.0552355   0.0771891
   11  -0.5660597   0.2227321   0.9292420  -0.4065831  -1.1759298   2.2834913
   12  22.8321933  33.5332441  19.2389715 -31.3251857 -66.0122015  -6.5266819
   13   0.0380564  -0.0383477  -0.0500218  -0.0024017   0.0024279   0.0515520
   14   0.1611718  -1.0924237  -0.2006226   0.1440243   0.5168553   1.6872849
   15  49.7785992  44.9754577 -41.2677904  89.8967403-138.0743990  -5.6259350
   16  -0.0380564   0.0383477  -0.0500218  -0.0024017  -0.0024279  -0.0515520
   17  -0.1611718   1.0924237  -0.2006226   0.1440242  -0.5168552  -1.6872849
   18 -49.7786000 -44.9754574 -41.2677907  89.8967686 138.0743809   5.6259350
   19  -0.0654245   0.0331143   0.0216548   0.0241177  -0.0587626   0.0188683
   20  -0.0909319   0.6075810  -0.6328620   1.0199044  -1.9686934  -0.0908344
   21 -61.0436304 -12.0034873  47.2990527-168.6739921 155.9625847   0.5821637
   22   0.0654245  -0.0331143   0.0216548   0.0241177   0.0587626  -0.0188683
   23   0.0909319  -0.6075810  -0.6328620   1.0199048   1.9686931   0.0908344
   24  61.0436324  12.0034866  47.2990533-168.6740241-155.9625515  -0.5821636
   25   0.0275772   0.0309423  -0.0038338  -0.0471462   0.0362211  -0.0809170
   26  -0.0746824   1.0784900   0.4381294  -2.1855864   1.1187869  -1.2398561
   27  28.8168167 -34.9825887 -21.3583776 227.0246669 -69.9491116   4.1161187
   28  -0.0275772  -0.0309423  -0.0038338  -0.0471462  -0.0362210   0.0809170
   29   0.0746824  -1.0784900   0.4381294  -2.1855867  -1.1187864   1.2398561
   30 -28.8168198  34.9825898 -21.3583781 227.0246811  69.9490676  -4.1161187
   31   0.0275772  -0.0309423  -0.0038338   0.0471462   0.0362210   0.0809170
   32  -0.0746824  -1.0784899   0.4381295   2.1855866   1.1187864   1.2398562
   33  28.8168192  34.9825874 -21.3583959-227.0246795 -69.9490689  -4.1161209
   34  -0.0275772   0.0309423  -0.0038338   0.0471462  -0.0362211  -0.0809170
   35   0.0746824   1.0784899   0.4381295   2.1855864  -1.1187869  -1.2398562
   36 -28.8168162 -34.9825887 -21.3583961-227.0246649  69.9491125   4.1161210
   37  -0.0654245  -0.0331143   0.0216548  -0.0241177  -0.0587626  -0.0188683
   38  -0.0909319  -0.6075811  -0.6328620  -1.0199048  -1.9686931   0.0908344
   39 -61.0436325  12.0034901  47.2990659 168.6740200 155.9625517  -0.5821586
   40   0.0654245   0.0331143   0.0216548  -0.0241177   0.0587626   0.0188683
   41   0.0909319   0.6075811  -0.6328620  -1.0199043   1.9686934  -0.0908344
   42  61.0436307 -12.0034889  47.2990666 168.6739881-155.9625839   0.5821586
   43   0.0380564   0.0383477  -0.0500218   0.0024017   0.0024279  -0.0515520
   44   0.1611718   1.0924237  -0.2006227  -0.1440242   0.5168552  -1.6872849
   45  49.7786006 -44.9754601 -41.2677969 -89.8967648-138.0743800   5.6259305
   46  -0.0380564  -0.0383477  -0.0500218   0.0024017  -0.0024279   0.0515520
   47  -0.1611718  -1.0924237  -0.2006227  -0.1440243  -0.5168553   1.6872849
   48 -49.7786000  44.9754593 -41.2677977 -89.8967369 138.0743972  -5.6259305
   49   0.0520478   0.0305039   0.0539950   0.0004580   0.0552355   0.0771891
   50   0.5660597   0.2227322   0.9292420   0.4065831   1.1759297   2.2834913
   51 -22.8321937  33.5332451  19.2389736  31.3251838  66.0122008  -6.5266797
   52  -0.0520478  -0.0305039   0.0539950   0.0004580  -0.0552355  -0.0771891
   53  -0.5660597  -0.2227321   0.9292421   0.4065828  -1.1759297  -2.2834913
   54  22.8321937 -33.5332448  19.2389739  31.3251707 -66.0122068   6.5266797
   55  -0.0538246  -0.0262980   0.0000091  -0.0234535  -0.0110505   0.0038960
   56  -1.0057977  -0.8872050  -0.6767166  -0.0735478  -1.1549322  -1.4966511
   57   5.7900333  -8.8434370  -3.8572934  -5.5240170 -13.8181074   3.1969902
   58   0.0538246   0.0262980   0.0000091  -0.0234535   0.0110505  -0.0038960
   59   1.0057977   0.8872050  -0.6767166  -0.0735475   1.1549321   1.4966511
   60  -5.7900333   8.8434370  -3.8572935  -5.5240144  13.8181085  -3.1969902
           37          38          39          40          41          42
    1   0.0521282  -0.0567034   0.1299903  -0.1112805  -0.2435794  -0.2238584
    2  -0.7944430   1.5994005  -1.3875505   0.0481310   0.2580147   0.0617668
    3  -2.8785756  -1.6576171   1.5804588  -0.1058939   0.0099488   0.2208323
    4   0.0521282   0.0567034  -0.1299903   0.1112805  -0.2435794   0.2238584
    5  -0.7944429  -1.5994005   1.3875505  -0.0481310   0.2580147  -0.0617668
    6  -2.8785746   1.6576171  -1.5804588   0.1058939   0.0099488  -0.2208323
    7   0.0446044  -0.0563760   0.0174125  -0.2131964  -0.2241387  -0.3851798
    8   1.5211928  -2.9528430   2.8206965   0.4141393   0.1568211   0.9663670
    9  18.0197073   1.4762948  -2.6167296   0.6905117  -0.3309111  -0.3136414
   10   0.0446044   0.0563760  -0.0174125   0.2131964  -0.2241387   0.3851798
   11   1.5211928   2.9528430  -2.8206965  -0.4141393   0.1568211  -0.9663670
   12  18.0197029  -1.4762950   2.6167297  -0.6905116  -0.3309111   0.3136414
   13  -0.0813134   0.0790663  -0.0318656  -0.3274669  -0.3950050  -0.4582882
   14  -1.8202908   3.4223286  -4.4111871   0.3823602   0.4006676   0.2674896
   15 -51.5865915   1.8486687   1.8776326  -2.0952026   0.3935118  -1.1100295
   16  -0.0813134  -0.0790663   0.0318656   0.3274669  -0.3950050   0.4582882
   17  -1.8202909  -3.4223286   4.4111871  -0.3823602   0.4006676  -0.2674896
   18 -51.5865825  -1.8486684  -1.8776327   2.0952026   0.3935118   1.1100295
   19   0.1035750  -0.0707770   0.0864435  -0.4121371  -0.4208485  -0.3545550
   20   1.6316718  -2.6792051   5.6514521   0.6507202   0.3830503   1.0649335
   21  94.8428645  -4.3704083  -0.0298878   1.5839566  -0.6903554  -0.1822666
   22   0.1035750   0.0707770  -0.0864435   0.4121371  -0.4208485   0.3545550
   23   1.6316720   2.6792051  -5.6514521  -0.6507202   0.3830503  -1.0649335
   24  94.8428544   4.3704077   0.0298881  -1.5839566  -0.6903554   0.1822666
   25  -0.1099250   0.0285308  -0.1009516  -0.4509202  -0.4782855  -0.1506336
   26  -1.3542442   1.0050942  -6.3785550   0.6323831   0.4493642  -0.3160995
   27-125.8796873   2.3417072  -1.3485043  -1.1967743   0.1012310   0.2882401
   28  -0.1099250  -0.0285308   0.1009516   0.4509202  -0.4782855   0.1506336
   29  -1.3542443  -1.0050942   6.3785550  -0.6323831   0.4493642   0.3160995
   30-125.8796828  -2.3417065   1.3485040   1.1967742   0.1012310  -0.2882401
   31   0.1099250   0.0285308   0.1009516  -0.4509202  -0.4782855   0.1506336
   32   1.3542443   1.0050942   6.3785550   0.6323831   0.4493642   0.3160995
   33 125.8796823   2.3417065   1.3485043  -1.1967743   0.1012309  -0.2882401
   34   0.1099250  -0.0285308  -0.1009516   0.4509202  -0.4782855  -0.1506336
   35   1.3542442  -1.0050942  -6.3785550  -0.6323831   0.4493642  -0.3160995
   36 125.8796868  -2.3417072  -1.3485040   1.1967743   0.1012309   0.2882401
   37  -0.1035750  -0.0707770  -0.0864435  -0.4121371  -0.4208485   0.3545550
   38  -1.6316720  -2.6792051  -5.6514521   0.6507202   0.3830503  -1.0649335
   39 -94.8428534  -4.3704077   0.0298877   1.5839566  -0.6903553   0.1822666
   40  -0.1035750   0.0707770   0.0864435   0.4121371  -0.4208485  -0.3545550
   41  -1.6316718   2.6792051   5.6514521  -0.6507202   0.3830503   1.0649335
   42 -94.8428636   4.3704083  -0.0298880  -1.5839566  -0.6903553  -0.1822666
   43   0.0813134   0.0790663   0.0318656  -0.3274669  -0.3950050   0.4582882
   44   1.8202909   3.4223286   4.4111871   0.3823602   0.4006676  -0.2674896
   45  51.5865816   1.8486684  -1.8776325  -2.0952026   0.3935118   1.1100295
   46   0.0813134  -0.0790663  -0.0318656   0.3274669  -0.3950050  -0.4582882
   47   1.8202908  -3.4223286  -4.4111871  -0.3823602   0.4006676   0.2674896
   48  51.5865906  -1.8486687   1.8776326   2.0952026   0.3935118  -1.1100295
   49  -0.0446044  -0.0563760  -0.0174125  -0.2131964  -0.2241387   0.3851798
   50  -1.5211928  -2.9528430  -2.8206965   0.4141393   0.1568211  -0.9663670
   51 -18.0197025   1.4762950   2.6167296   0.6905116  -0.3309111   0.3136414
   52  -0.0446044   0.0563760   0.0174125   0.2131964  -0.2241387  -0.3851798
   53  -1.5211928   2.9528430   2.8206965  -0.4141393   0.1568211   0.9663670
   54 -18.0197069  -1.4762949  -2.6167296  -0.6905116  -0.3309111  -0.3136414
   55  -0.0521282  -0.0567034  -0.1299903  -0.1112805  -0.2435794   0.2238584
   56   0.7944429   1.5994005   1.3875505   0.0481310   0.2580147  -0.0617668
   57   2.8785745  -1.6576171  -1.5804588  -0.1058939   0.0099488  -0.2208323
   58  -0.0521282   0.0567034   0.1299903   0.1112805  -0.2435794  -0.2238584
   59   0.7944429  -1.5994005  -1.3875505  -0.0481310   0.2580147   0.0617668
   60   2.8785755   1.6576171   1.5804588   0.1058939   0.0099488   0.2208323
           43          44          45          46          47          48
    1  -0.5391654  -0.6637297   0.3811879  -0.4866495   0.4912881   0.1975186
    2   0.7033329   0.9734057  -0.3103067   0.9814892  -0.4957594  -0.7088552
    3   0.4468226   0.1948548   0.1991952   1.0065795  -0.8726476  -0.3549906
    4  -0.5391654  -0.6637297  -0.3811879  -0.4866496  -0.4912881   0.1975186
    5   0.7033329   0.9734057   0.3103067   0.9814892   0.4957594  -0.7088552
    6   0.4468226   0.1948548  -0.1991952   1.0065794   0.8726476  -0.3549906
    7  -0.2684136  -0.0395920   0.4360310   0.3329817   0.3272020  -0.6549119
    8  -0.0073367  -0.3094270  -1.1014886  -0.9586091  -1.2526217   1.3168871
    9  -3.2808169  -2.2247674  -1.5015618  -6.8885665   3.0175245   3.1276560
   10  -0.2684136  -0.0395920  -0.4360310   0.3329817  -0.3272020  -0.6549119
   11  -0.0073367  -0.3094270   1.1014886  -0.9586091   1.2526217   1.3168871
   12  -3.2808168  -2.2247674   1.5015618  -6.8885664  -3.0175245   3.1276560
   13  -0.4773753  -0.1794298   0.2790922   0.2214881  -0.1004249  -0.2287895
   14   0.7256665   0.4523315  -0.2348390   0.3435198   0.8276600  -0.1108672
   15   7.8358280   3.9462161   6.4506464  17.4403176  -0.5727271  -7.3091389
   16  -0.4773753  -0.1794298  -0.2790922   0.2214881   0.1004249  -0.2287895
   17   0.7256665   0.4523315   0.2348390   0.3435198  -0.8276600  -0.1108672
   18   7.8358279   3.9462160  -6.4506464  17.4403173   0.5727271  -7.3091389
   19  -0.1871989   0.2877126  -0.1158453   0.5394625  -0.4827850  -0.1016282
   20  -0.0302836  -0.4559494   0.0617550  -1.1212812   0.3330291   0.3610712
   21 -13.7017054  -3.9567708  -6.9106579 -28.2964055  -1.9698643   7.1369502
   22  -0.1871989   0.2877126   0.1158453   0.5394625   0.4827850  -0.1016282
   23  -0.0302836  -0.4559494  -0.0617550  -1.1212812  -0.3330291   0.3610712
   24 -13.7017053  -3.9567707   6.9106579 -28.2964053   1.9698644   7.1369502
   25  -0.1809993   0.2969980  -0.4065846   0.0408885  -0.2094551   0.4631904
   26   0.3588904  -0.2580175   0.7583822   0.4209486   1.1192950  -0.6507943
   27  17.3698446   1.8722770   2.2123180  36.0894708  -0.7293342  -2.6331360
   28  -0.1809993   0.2969980   0.4065846   0.0408885   0.2094551   0.4631904
   29   0.3588904  -0.2580175  -0.7583822   0.4209486  -1.1192950  -0.6507943
   30  17.3698445   1.8722770  -2.2123180  36.0894707   0.7293342  -2.6331360
   31   0.1809993   0.2969980  -0.4065846  -0.0408885   0.2094551   0.4631904
   32  -0.3588904  -0.2580175   0.7583822  -0.4209486  -1.1192950  -0.6507943
   33 -17.3698445   1.8722769   2.2123179 -36.0894707   0.7293342  -2.6331357
   34   0.1809993   0.2969980   0.4065846  -0.0408885  -0.2094551   0.4631904
   35  -0.3588904  -0.2580175  -0.7583822  -0.4209486   1.1192950  -0.6507943
   36 -17.3698446   1.8722768  -2.2123180 -36.0894708  -0.7293341  -2.6331357
   37   0.1871989   0.2877126  -0.1158453  -0.5394625   0.4827850  -0.1016282
   38   0.0302836  -0.4559494   0.0617550   1.1212812  -0.3330291   0.3610712
   39  13.7017053  -3.9567707  -6.9106579  28.2964052   1.9698644   7.1369500
   40   0.1871989   0.2877126   0.1158453  -0.5394625  -0.4827850  -0.1016282
   41   0.0302836  -0.4559494  -0.0617550   1.1212812   0.3330291   0.3610712
   42  13.7017054  -3.9567706   6.9106580  28.2964055  -1.9698644   7.1369500
   43   0.4773753  -0.1794298   0.2790922  -0.2214881   0.1004249  -0.2287895
   44  -0.7256665   0.4523315  -0.2348390  -0.3435198  -0.8276600  -0.1108672
   45  -7.8358278   3.9462160   6.4506464 -17.4403173   0.5727271  -7.3091388
   46   0.4773753  -0.1794298  -0.2790922  -0.2214881  -0.1004249  -0.2287895
   47  -0.7256665   0.4523315   0.2348390  -0.3435198   0.8276600  -0.1108672
   48  -7.8358280   3.9462159  -6.4506464 -17.4403175  -0.5727271  -7.3091388
   49   0.2684136  -0.0395920   0.4360310  -0.3329817  -0.3272020  -0.6549119
   50   0.0073367  -0.3094270  -1.1014886   0.9586091   1.2526217   1.3168871
   51   3.2808168  -2.2247674  -1.5015618   6.8885664  -3.0175245   3.1276560
   52   0.2684136  -0.0395920  -0.4360310  -0.3329817   0.3272020  -0.6549119
   53   0.0073367  -0.3094270   1.1014886   0.9586091  -1.2526217   1.3168871
   54   3.2808169  -2.2247674   1.5015618   6.8885665   3.0175245   3.1276559
   55   0.5391654  -0.6637297   0.3811879   0.4866495  -0.4912881   0.1975186
   56  -0.7033329   0.9734057  -0.3103067  -0.9814892   0.4957594  -0.7088552
   57  -0.4468226   0.1948548   0.1991952  -1.0065794   0.8726476  -0.3549906
   58   0.5391654  -0.6637297  -0.3811879   0.4866495   0.4912881   0.1975186
   59  -0.7033329   0.9734057   0.3103067  -0.9814892  -0.4957594  -0.7088552
   60  -0.4468226   0.1948548  -0.1991952  -1.0065795  -0.8726476  -0.3549906
           49          50          51          52          53          54
    1  -0.5967260  -0.0288783  -0.5759532   0.2783361  -0.3887534   0.1378538
    2   0.9961798  -0.5706575   1.3134589   0.0938482   1.4735390  -0.7470471
    3   1.0714622  -1.2915157   1.5553782  -0.4221277   2.8611581   3.6294989
    4   0.5967260  -0.0288783   0.5759532   0.2783361   0.3887534  -0.1378538
    5  -0.9961798  -0.5706575  -1.3134589   0.0938482  -1.4735390   0.7470471
    6  -1.0714622  -1.2915157  -1.5553782  -0.4221277  -2.8611581  -3.6294989
    7   0.0297000  -0.7034495   0.4423056   0.4612486   0.6703781  -0.5094206
    8   0.3765151   1.7805384  -0.8048259  -1.5300173  -2.3928243   2.1350717
    9  -5.2906441   8.5665852  -9.2578525   0.6908531 -18.6574831 -10.9614578
   10  -0.0297000  -0.7034495  -0.4423056   0.4612486  -0.6703781   0.5094206
   11  -0.3765151   1.7805384   0.8048259  -1.5300173   2.3928243  -2.1350717
   12   5.2906441   8.5665852   9.2578525   0.6908531  18.6574831  10.9614578
   13   0.3946443   0.0978935   0.2185773  -0.7112039  -0.2597352   0.5998843
   14  -1.2909090  -0.8644068  -1.1459069   1.9183911   0.8727010  -2.3940146
   15   4.5875678 -24.3487069  14.6641334   2.0031757  44.7393627  12.7762951
   16  -0.3946443   0.0978935  -0.2185773  -0.7112039   0.2597352  -0.5998843
   17   1.2909090  -0.8644068   1.1459069   1.9183911  -0.8727010   2.3940146
   18  -4.5875678 -24.3487067 -14.6641334   2.0031757 -44.7393628 -12.7762951
   19   0.2312591   0.3716938  -0.2224606  -0.0012526  -0.3119971  -0.1297527
   20  -0.3733328   0.0942576   1.1260626  -0.4943544   1.1697169   0.5861523
   21   2.5714191  40.6016139  -4.6457021  -5.4185327 -54.0840510  -2.7623951
   22  -0.2312591   0.3716938   0.2224606  -0.0012526   0.3119971   0.1297527
   23   0.3733328   0.0942576  -1.1260626  -0.4943544  -1.1697169  -0.5861523
   24  -2.5714191  40.6016137   4.6457021  -5.4185327  54.0840513   2.7623950
   25  -0.3554609   0.4332553  -0.3553891   0.2290113   0.2527277  -0.4385479
   26   0.8033550  -1.2367838   0.6072968  -0.2143255  -0.9212285   1.5565002
   27  -3.2495150 -48.8371335 -11.6460579   3.2048925  24.9738033  -9.7042414
   28   0.3554609   0.4332553   0.3553891   0.2290113  -0.2527277   0.4385479
   29  -0.8033550  -1.2367838  -0.6072968  -0.2143255   0.9212285  -1.5565002
   30   3.2495151 -48.8371334  11.6460579   3.2048925 -24.9738038   9.7042415
   31  -0.3554609  -0.4332553   0.3553891   0.2290113   0.2527277   0.4385479
   32   0.8033550   1.2367838  -0.6072968  -0.2143255  -0.9212285  -1.5565002
   33  -3.2495151  48.8371334  11.6460579   3.2048924  24.9738037   9.7042418
   34   0.3554609  -0.4332553  -0.3553891   0.2290113  -0.2527277  -0.4385479
   35  -0.8033550   1.2367838   0.6072968  -0.2143255   0.9212285   1.5565002
   36   3.2495150  48.8371334 -11.6460580   3.2048924 -24.9738033  -9.7042419
   37   0.2312591  -0.3716938   0.2224606  -0.0012526  -0.3119971   0.1297527
   38  -0.3733328  -0.0942576  -1.1260626  -0.4943544   1.1697169  -0.5861523
   39   2.5714191 -40.6016137   4.6457021  -5.4185326 -54.0840513   2.7623942
   40  -0.2312591  -0.3716938  -0.2224606  -0.0012526   0.3119971  -0.1297527
   41   0.3733328  -0.0942576   1.1260626  -0.4943544  -1.1697169   0.5861523
   42  -2.5714191 -40.6016139  -4.6457020  -5.4185326  54.0840510  -2.7623941
   43   0.3946443  -0.0978935  -0.2185773  -0.7112039  -0.2597352  -0.5998843
   44  -1.2909090   0.8644068   1.1459069   1.9183911   0.8727010   2.3940146
   45   4.5875678  24.3487067 -14.6641334   2.0031756  44.7393628 -12.7762944
   46  -0.3946443  -0.0978935   0.2185773  -0.7112039   0.2597352   0.5998843
   47   1.2909090   0.8644068  -1.1459069   1.9183911  -0.8727010  -2.3940146
   48  -4.5875678  24.3487068  14.6641333   2.0031756 -44.7393628  12.7762944
   49   0.0297000   0.7034495  -0.4423056   0.4612486   0.6703781   0.5094206
   50   0.3765151  -1.7805384   0.8048259  -1.5300173  -2.3928243  -2.1350717
   51  -5.2906441  -8.5665851   9.2578525   0.6908532 -18.6574832  10.9614575
   52  -0.0297000   0.7034495   0.4423056   0.4612486  -0.6703781  -0.5094206
   53  -0.3765151  -1.7805384  -0.8048259  -1.5300173   2.3928243   2.1350717
   54   5.2906441  -8.5665852  -9.2578524   0.6908531  18.6574832 -10.9614575
   55  -0.5967260   0.0288783   0.5759532   0.2783361  -0.3887534  -0.1378538
   56   0.9961798   0.5706575  -1.3134589   0.0938482   1.4735390   0.7470471
   57   1.0714622   1.2915157  -1.5553782  -0.4221277   2.8611581  -3.6294989
   58   0.5967260   0.0288783  -0.5759532   0.2783361   0.3887534   0.1378538
   59  -0.9961798   0.5706575   1.3134589   0.0938482  -1.4735390  -0.7470471
   60  -1.0714622   1.2915157   1.5553782  -0.4221277  -2.8611581   3.6294989
           55          56          57          58          59
    1   0.3522612  -0.1860341   0.0254321  -0.0471249   0.1004483
    2   0.0073033   0.3955359  -0.3112416  -0.3574370   0.5207252
    3  -0.0898544   1.7668273  -2.4146011   4.5737755  -1.1049054
    4   0.3522612  -0.1860341   0.0254321   0.0471249  -0.1004483
    5   0.0073033   0.3955359  -0.3112416   0.3574370  -0.5207252
    6  -0.0898544   1.7668273  -2.4146011  -4.5737754   1.1049054
    7   0.0901230   0.2934364  -0.3489209  -0.2211775   0.0949198
    8  -1.4280847  -0.3200860   0.9503039   1.7755738  -2.1463801
    9  -1.2103798  -9.1648818  14.8345984 -18.8063049   3.1319110
   10   0.0901230   0.2934364  -0.3489209   0.2211775  -0.0949198
   11  -1.4280847  -0.3200860   0.9503038  -1.7755738   2.1463801
   12  -1.2103796  -9.1648817  14.8345987  18.8063043  -3.1319110
   13  -0.6510080   0.2235117   0.3838024   0.5846484  -0.3709024
   14   3.0203009  -1.0845577  -0.5424048  -3.4180068   4.2117916
   15   9.0210723  20.4111962 -44.6535211  35.8904602  -3.3597782
   16  -0.6510080   0.2235117   0.3838024  -0.5846484   0.3709024
   17   3.0203009  -1.0845577  -0.5424047   3.4180069  -4.2117916
   18   9.0210718  20.4111961 -44.6535214 -35.8904583   3.3597783
   19   0.5839048  -0.7544008   0.1754874  -0.6625858   0.5889358
   20  -3.1398940   2.2544007  -1.4680539   3.5927491  -5.9343114
   21 -24.5168473 -23.9915235  86.0631405 -38.3643158   0.5891430
   22   0.5839048  -0.7544008   0.1754875   0.6625858  -0.5889358
   23  -3.1398940   2.2544007  -1.4680541  -3.5927491   5.9343114
   24 -24.5168468 -23.9915233  86.0631407  38.3643122  -0.5891432
   25  -0.1843147   0.4431969  -0.8230499   0.2965405  -0.7121959
   26   2.3699195  -1.2171965   3.5033511  -1.5568194   6.8893819
   27  38.1955648  10.9700077-117.2490755  16.7638106   2.5077727
   28  -0.1843147   0.4431969  -0.8230499  -0.2965404   0.7121959
   29   2.3699195  -1.2171965   3.5033511   1.5568193  -6.8893819
   30  38.1955645  10.9700076-117.2490755 -16.7638057  -2.5077725
   31   0.1843146   0.4431969   0.8230499   0.2965404   0.7121959
   32  -2.3699193  -1.2171969  -3.5033511  -1.5568193  -6.8893819
   33 -38.1955661  10.9700034 117.2490753  16.7638057  -2.5077728
   34   0.1843146   0.4431969   0.8230499  -0.2965405  -0.7121959
   35  -2.3699193  -1.2171969  -3.5033511   1.5568194   6.8893819
   36 -38.1955663  10.9700033 117.2490752 -16.7638106   2.5077725
   37  -0.5839047  -0.7544009  -0.1754874  -0.6625858  -0.5889358
   38   3.1398936   2.2544011   1.4680540   3.5927491   5.9343114
   39  24.5168501 -23.9915208 -86.0631402 -38.3643122  -0.5891429
   40  -0.5839047  -0.7544009  -0.1754874   0.6625858   0.5889358
   41   3.1398936   2.2544011   1.4680539  -3.5927491  -5.9343114
   42  24.5168506 -23.9915207 -86.0631399  38.3643158   0.5891431
   43   0.6510079   0.2235118  -0.3838024   0.5846484   0.3709024
   44  -3.0203008  -1.0845581   0.5424047  -3.4180069  -4.2117916
   45  -9.0210746  20.4111953  44.6535209  35.8904583   3.3597781
   46   0.6510079   0.2235118  -0.3838024  -0.5846484  -0.3709024
   47  -3.0203008  -1.0845581   0.5424048   3.4180068   4.2117915
   48  -9.0210751  20.4111951  44.6535206 -35.8904601  -3.3597782
   49  -0.0901230   0.2934364   0.3489209  -0.2211775  -0.0949198
   50   1.4280847  -0.3200858  -0.9503038   1.7755738   2.1463801
   51   1.2103809  -9.1648817 -14.8345984 -18.8063042  -3.1319110
   52  -0.0901230   0.2934364   0.3489209   0.2211775   0.0949198
   53   1.4280847  -0.3200858  -0.9503039  -1.7755738  -2.1463801
   54   1.2103811  -9.1648817 -14.8345982  18.8063049   3.1319110
   55  -0.3522612  -0.1860342  -0.0254321  -0.0471249  -0.1004483
   56  -0.0073034   0.3955359   0.3112416  -0.3574370  -0.5207252
   57   0.0898542   1.7668273   2.4146011   4.5737754   1.1049053
   58  -0.3522612  -0.1860342  -0.0254321   0.0471249   0.1004483
   59  -0.0073034   0.3955359   0.3112416   0.3574370   0.5207252
   60   0.0898541   1.7668273   2.4146010  -4.5737755  -1.1049054
 Final Alpha Density Matrix
            1           2           3           4           5           6
    1   0.0472617   0.0662787   0.0665545   0.0374879   0.0522889   0.0542317
    2   0.0662787   0.1155207   0.1628496   0.0522889   0.0953796   0.1447816
    3   0.0665545   0.1628496   0.3549979   0.0542317   0.1447816   0.3376793
    4   0.0374879   0.0522889   0.0542317   0.0472617   0.0662787   0.0665545
    5   0.0522889   0.0953796   0.1447816   0.0662787   0.1155207   0.1628496
    6   0.0542317   0.1447816   0.3376793   0.0665545   0.1628496   0.3549979
    7   0.0219811   0.0039280  -0.0443086   0.0039681  -0.0216125  -0.0661081
    8   0.0393089   0.0085711  -0.1064228  -0.0128441  -0.0657622  -0.1710545
    9  -0.0326365  -0.2077417  -0.6962812  -0.0991680  -0.3042711  -0.7839099
   10   0.0039681  -0.0216125  -0.0661081   0.0219811   0.0039280  -0.0443086
   11  -0.0128441  -0.0657622  -0.1710544   0.0393089   0.0085711  -0.1064228
   12  -0.0991680  -0.3042711  -0.7839099  -0.0326365  -0.2077417  -0.6962812
   13  -0.0024246  -0.0177174  -0.0223490  -0.0190204  -0.0407282  -0.0404247
   14  -0.0313575  -0.0752472  -0.1084808  -0.0693831  -0.1283661  -0.1514091
   15  -0.0233647   0.2105850   0.9971551  -0.0225294   0.2136043   1.0027122
   16  -0.0190204  -0.0407282  -0.0404247  -0.0024246  -0.0177174  -0.0223490
   17  -0.0693831  -0.1283661  -0.1514091  -0.0313575  -0.0752472  -0.1084808
   18  -0.0225294   0.2136043   1.0027122  -0.0233648   0.2105850   0.9971551
   19   0.0047299   0.0221333   0.0662108  -0.0018498   0.0141306   0.0635067
   20   0.0378351   0.1102342   0.2606779   0.0215567   0.0901161   0.2523065
   21   0.2132303   0.0710213  -0.7834089   0.1684490   0.0061782  -0.8403415
   22  -0.0018498   0.0141306   0.0635067   0.0047299   0.0221333   0.0662108
   23   0.0215567   0.0901161   0.2523065   0.0378351   0.1102342   0.2606779
   24   0.1684490   0.0061782  -0.8403415   0.2132303   0.0710213  -0.7834090
   25   0.0019959   0.0020773  -0.0229571   0.0054433   0.0088425  -0.0110225
   26  -0.0061719  -0.0253039  -0.1168020   0.0091838   0.0010677  -0.0792726
   27  -0.3683953  -0.4277973   0.0870641  -0.3308999  -0.3687057   0.1536466
   28   0.0054433   0.0088425  -0.0110225   0.0019959   0.0020773  -0.0229571
   29   0.0091838   0.0010677  -0.0792726  -0.0061719  -0.0253039  -0.1168020
   30  -0.3308999  -0.3687057   0.1536466  -0.3683953  -0.4277973   0.0870642
   31  -0.0076514  -0.0212403  -0.0483966  -0.0004389  -0.0094539  -0.0325118
   32  -0.0241249  -0.0683159  -0.1609306  -0.0044915  -0.0362394  -0.1189131
   33   0.3882305   0.6274801   0.6717380   0.4338599   0.6974196   0.7468543
   34  -0.0004389  -0.0094539  -0.0325118  -0.0076514  -0.0212403  -0.0483966
   35  -0.0044915  -0.0362394  -0.1189131  -0.0241249  -0.0683159  -0.1609306
   36   0.4338599   0.6974196   0.7468543   0.3882305   0.6274801   0.6717380
   37  -0.0007790   0.0055447   0.0410338   0.0033643   0.0118426   0.0495798
   38   0.0011392   0.0352629   0.1855437   0.0121302   0.0515126   0.2057823
   39  -0.3394910  -0.6705632  -1.1689944  -0.3688191  -0.7147972  -1.2097141
   40   0.0033643   0.0118426   0.0495798  -0.0007790   0.0055447   0.0410338
   41   0.0121302   0.0515126   0.2057823   0.0011392   0.0352629   0.1855437
   42  -0.3688191  -0.7147972  -1.2097141  -0.3394910  -0.6705632  -1.1689944
   43   0.0021319   0.0048044  -0.0017571   0.0007681   0.0021077  -0.0038520
   44   0.0091147   0.0104739  -0.0422176   0.0040361   0.0012949  -0.0505791
   45   0.2181617   0.5018613   1.1103207   0.2399644   0.5328437   1.1378759
   46   0.0007681   0.0021077  -0.0038520   0.0021319   0.0048044  -0.0017571
   47   0.0040361   0.0012949  -0.0505791   0.0091147   0.0104739  -0.0422176
   48   0.2399644   0.5328437   1.1378759   0.2181617   0.5018613   1.1103208
   49  -0.0001085  -0.0061989  -0.0350564  -0.0042981  -0.0133039  -0.0423530
   50  -0.0054720  -0.0285692  -0.1112086  -0.0193241  -0.0518224  -0.1356563
   51  -0.0911995  -0.2519499  -0.6907480  -0.1240746  -0.3035933  -0.7430657
   52  -0.0042981  -0.0133039  -0.0423530  -0.0001085  -0.0061989  -0.0350564
   53  -0.0193241  -0.0518224  -0.1356563  -0.0054720  -0.0285692  -0.1112086
   54  -0.1240746  -0.3035933  -0.7430657  -0.0911995  -0.2519499  -0.6907480
   55   0.0020468   0.0073727   0.0359019  -0.0009280   0.0024503   0.0307122
   56   0.0073727   0.0257952   0.1040932   0.0024503   0.0177467   0.0955382
   57   0.0359019   0.1040932   0.3055655   0.0307122   0.0955382   0.2957306
   58  -0.0009280   0.0024503   0.0307122   0.0020468   0.0073727   0.0359019
   59   0.0024503   0.0177467   0.0955382   0.0073727   0.0257952   0.1040932
   60   0.0307122   0.0955382   0.2957306   0.0359019   0.1040932   0.3055655
            7           8           9          10          11          12
    1   0.0219811   0.0393089  -0.0326365   0.0039681  -0.0128441  -0.0991680
    2   0.0039280   0.0085711  -0.2077417  -0.0216125  -0.0657622  -0.3042711
    3  -0.0443086  -0.1064228  -0.6962812  -0.0661081  -0.1710544  -0.7839099
    4   0.0039681  -0.0128441  -0.0991680   0.0219811   0.0393089  -0.0326365
    5  -0.0216125  -0.0657622  -0.3042711   0.0039280   0.0085711  -0.2077417
    6  -0.0661081  -0.1710545  -0.7839099  -0.0443086  -0.1064228  -0.6962812
    7   0.0556247   0.1061980   0.2083616   0.0219202   0.0094246   0.0883532
    8   0.1061980   0.2457562   0.5350879   0.0094246  -0.0334042   0.1838224
    9   0.2083616   0.5350879   1.9689699   0.0883532   0.1838224   1.4962460
   10   0.0219202   0.0094246   0.0883532   0.0556247   0.1061980   0.2083616
   11   0.0094246  -0.0334042   0.1838224   0.1061980   0.2457562   0.5350879
   12   0.0883532   0.1838224   1.4962460   0.2083616   0.5350879   1.9689700
   13   0.0377617   0.0633277   0.0924669   0.0056184  -0.0272245  -0.0127887
   14   0.0672703   0.1423940   0.3144301  -0.0055530  -0.0640279   0.0691692
   15  -0.2450317  -0.5900349  -2.6446204  -0.2470904  -0.5910077  -2.6071542
   16   0.0056184  -0.0272245  -0.0127887   0.0377617   0.0633277   0.0924669
   17  -0.0055530  -0.0640279   0.0691692   0.0672703   0.1423940   0.3144301
   18  -0.2470904  -0.5910077  -2.6071542  -0.2450317  -0.5900349  -2.6446205
   19  -0.0047877  -0.0187512  -0.1413250  -0.0198921  -0.0576219  -0.1723310
   20  -0.0311153  -0.0768390  -0.5266445  -0.0677760  -0.1722505  -0.6042745
   21   0.3036710   0.7507807   2.7607044   0.2224873   0.5143389   2.4357964
   22  -0.0198921  -0.0576219  -0.1723310  -0.0047877  -0.0187512  -0.1413250
   23  -0.0677760  -0.1722505  -0.6042745  -0.0311153  -0.0768390  -0.5266445
   24   0.2224873   0.5143389   2.4357964   0.3036710   0.7507807   2.7607045
   25  -0.0033249  -0.0002289   0.0375995  -0.0008555   0.0133769   0.0770583
   26  -0.0015490   0.0100340   0.1921676   0.0174371   0.0804759   0.3352403
   27  -0.1895673  -0.4712159  -1.4367479  -0.1316855  -0.2860060  -1.1177274
   28  -0.0008555   0.0133769   0.0770583  -0.0033249  -0.0002289   0.0375995
   29   0.0174371   0.0804759   0.3352403  -0.0015490   0.0100340   0.1921676
   30  -0.1316855  -0.2860060  -1.1177274  -0.1895673  -0.4712159  -1.4367480
   31   0.0028283   0.0037594   0.0570041   0.0129528   0.0385755   0.1151011
   32   0.0137255   0.0226883   0.2256673   0.0414089   0.1172283   0.3899158
   33  -0.0324139  -0.1441140  -0.8526844   0.0420058   0.0869183  -0.4933981
   34   0.0129528   0.0385755   0.1151011   0.0028283   0.0037594   0.0570041
   35   0.0414089   0.1172283   0.3899158   0.0137255   0.0226883   0.2256673
   36   0.0420058   0.0869183  -0.4933981  -0.0324139  -0.1441140  -0.8526844
   37  -0.0079918  -0.0306210  -0.1248875  -0.0012945  -0.0090847  -0.1028117
   38  -0.0349587  -0.1194734  -0.5266723  -0.0161757  -0.0612646  -0.4693108
   39   0.1306807   0.4070661   2.2079556   0.0809162   0.2576786   1.9595454
   40  -0.0012945  -0.0090847  -0.1028117  -0.0079918  -0.0306210  -0.1248875
   41  -0.0161757  -0.0612646  -0.4693108  -0.0349587  -0.1194734  -0.5266724
   42   0.0809162   0.2576787   1.9595454   0.1306807   0.4070661   2.2079556
   43  -0.0011803   0.0014624   0.0368250  -0.0023543  -0.0032816   0.0069721
   44   0.0037601   0.0291555   0.2121095  -0.0020758   0.0083385   0.1299461
   45  -0.1485100  -0.4538711  -2.3670659  -0.1079383  -0.3367260  -2.2258053
   46  -0.0023543  -0.0032816   0.0069721  -0.0011803   0.0014624   0.0368250
   47  -0.0020758   0.0083385   0.1299461   0.0037601   0.0291555   0.2121095
   48  -0.1079383  -0.3367260  -2.2258053  -0.1485100  -0.4538711  -2.3670660
   49   0.0079110   0.0268822   0.1148290   0.0023118   0.0079816   0.0632502
   50   0.0268822   0.0855648   0.3587505   0.0079816   0.0221703   0.1970861
   51   0.1148290   0.3587505   1.7521241   0.0632502   0.1970861   1.4460093
   52   0.0023118   0.0079816   0.0632502   0.0079110   0.0268822   0.1148290
   53   0.0079816   0.0221703   0.1970861   0.0268822   0.0855648   0.3587505
   54   0.0632502   0.1970861   1.4460093   0.1148290   0.3587505   1.7521241
   55  -0.0001085  -0.0054720  -0.0911995  -0.0042981  -0.0193241  -0.1240746
   56  -0.0061989  -0.0285692  -0.2519499  -0.0133039  -0.0518224  -0.3035933
   57  -0.0350564  -0.1112086  -0.6907480  -0.0423530  -0.1356563  -0.7430657
   58  -0.0042981  -0.0193241  -0.1240746  -0.0001085  -0.0054720  -0.0911995
   59  -0.0133039  -0.0518224  -0.3035933  -0.0061989  -0.0285692  -0.2519499
   60  -0.0423530  -0.1356563  -0.7430657  -0.0350564  -0.1112086  -0.6907480
           13          14          15          16          17          18
    1  -0.0024246  -0.0313575  -0.0233647  -0.0190204  -0.0693831  -0.0225294
    2  -0.0177174  -0.0752472   0.2105850  -0.0407282  -0.1283661   0.2136043
    3  -0.0223490  -0.1084808   0.9971551  -0.0404247  -0.1514091   1.0027122
    4  -0.0190204  -0.0693831  -0.0225294  -0.0024246  -0.0313575  -0.0233648
    5  -0.0407282  -0.1283661   0.2136043  -0.0177174  -0.0752472   0.2105850
    6  -0.0404247  -0.1514091   1.0027122  -0.0223490  -0.1084808   0.9971551
    7   0.0377617   0.0672703  -0.2450317   0.0056184  -0.0055530  -0.2470904
    8   0.0633277   0.1423940  -0.5900349  -0.0272245  -0.0640279  -0.5910077
    9   0.0924669   0.3144301  -2.6446204  -0.0127887   0.0691692  -2.6071542
   10   0.0056184  -0.0055530  -0.2470904   0.0377617   0.0672703  -0.2450317
   11  -0.0272245  -0.0640279  -0.5910077   0.0633277   0.1423940  -0.5900349
   12  -0.0127887   0.0691692  -2.6071542   0.0924669   0.3144301  -2.6446205
   13   0.0550093   0.0960749   0.0075778   0.0220268   0.0230509  -0.0014276
   14   0.0960749   0.2181595  -0.0815902   0.0230509   0.0553277  -0.0966997
   15   0.0075778  -0.0815902   4.5065622  -0.0014276  -0.0966997   4.4534764
   16   0.0220268   0.0230509  -0.0014276   0.0550093   0.0960749   0.0075778
   17   0.0230509   0.0553277  -0.0966997   0.0960749   0.2181595  -0.0815902
   18  -0.0014276  -0.0966997   4.4534764   0.0075778  -0.0815902   4.5065623
   19   0.0247840   0.0145715   0.2503381   0.0043799  -0.0272814   0.2329779
   20   0.0217877  -0.0303114   0.8061490  -0.0263831  -0.1297917   0.7625721
   21  -0.0545859  -0.1198323  -5.1991631  -0.1271126  -0.2878690  -5.1585425
   22   0.0043799  -0.0272814   0.2329778   0.0247840   0.0145715   0.2503381
   23  -0.0263831  -0.1297917   0.7625720   0.0217877  -0.0303114   0.8061490
   24  -0.1271126  -0.2878691  -5.1585424  -0.0545859  -0.1198323  -5.1991632
   25  -0.0038209  -0.0169955  -0.1097436  -0.0101035  -0.0249500  -0.1292996
   26  -0.0155329  -0.0297746  -0.4381446  -0.0185539  -0.0212560  -0.4860473
   27   0.1512229   0.4949588   3.7787455   0.1806732   0.5805891   3.6834505
   28  -0.0101035  -0.0249500  -0.1292996  -0.0038209  -0.0169955  -0.1097436
   29  -0.0185539  -0.0212560  -0.4860473  -0.0155329  -0.0297746  -0.4381446
   30   0.1806732   0.5805891   3.6834504   0.1512229   0.4949588   3.7787456
   31  -0.0030080   0.0061092  -0.1072746  -0.0008554   0.0164000  -0.1152195
   32  -0.0027365   0.0253585  -0.4056860   0.0038261   0.0546067  -0.4403965
   33  -0.2001894  -0.7615612  -0.7447938  -0.1525159  -0.6365138  -0.8150042
   34  -0.0008554   0.0164000  -0.1152195  -0.0030080   0.0061092  -0.1072746
   35   0.0038261   0.0546067  -0.4403965  -0.0027365   0.0253585  -0.4056860
   36  -0.1525159  -0.6365138  -0.8150041  -0.2001894  -0.7615611  -0.7447938
   37   0.0017814   0.0001168   0.1773075   0.0054007   0.0102268   0.1930162
   38   0.0057888  -0.0103010   0.8083150   0.0187115   0.0223651   0.8488353
   39   0.1475292   0.6608041  -1.9211267   0.1096232   0.5676527  -1.8328493
   40   0.0054007   0.0102268   0.1930162   0.0017814   0.0001168   0.1773075
   41   0.0187115   0.0223651   0.8488353   0.0057888  -0.0103010   0.8083150
   42   0.1096232   0.5676527  -1.8328494   0.1475292   0.6608041  -1.9211268
   43  -0.0014431  -0.0087558  -0.0852546  -0.0003004  -0.0079664  -0.0472856
   44  -0.0087558  -0.0306425  -0.4312259  -0.0079664  -0.0338144  -0.3447287
   45  -0.0852546  -0.4312259   2.8715580  -0.0472856  -0.3447287   2.8831341
   46  -0.0003004  -0.0079664  -0.0472856  -0.0014431  -0.0087558  -0.0852546
   47  -0.0079664  -0.0338144  -0.3447287  -0.0087558  -0.0306425  -0.4312259
   48  -0.0472856  -0.3447287   2.8831342  -0.0852546  -0.4312259   2.8715581
   49  -0.0011803   0.0037601  -0.1485100  -0.0023543  -0.0020758  -0.1079383
   50   0.0014624   0.0291555  -0.4538711  -0.0032816   0.0083385  -0.3367260
   51   0.0368250   0.2121095  -2.3670659   0.0069721   0.1299461  -2.2258052
   52  -0.0023543  -0.0020758  -0.1079383  -0.0011803   0.0037601  -0.1485100
   53  -0.0032816   0.0083385  -0.3367260   0.0014624   0.0291555  -0.4538711
   54   0.0069721   0.1299461  -2.2258053   0.0368250   0.2121095  -2.3670660
   55   0.0021319   0.0091147   0.2181617   0.0007681   0.0040361   0.2399644
   56   0.0048044   0.0104739   0.5018613   0.0021077   0.0012949   0.5328437
   57  -0.0017571  -0.0422176   1.1103207  -0.0038520  -0.0505791   1.1378759
   58   0.0007681   0.0040361   0.2399644   0.0021319   0.0091147   0.2181617
   59   0.0021077   0.0012949   0.5328437   0.0048044   0.0104739   0.5018613
   60  -0.0038520  -0.0505791   1.1378759  -0.0017571  -0.0422176   1.1103207
           19          20          21          22          23          24
    1   0.0047299   0.0378351   0.2132303  -0.0018498   0.0215567   0.1684490
    2   0.0221333   0.1102342   0.0710213   0.0141306   0.0901161   0.0061782
    3   0.0662108   0.2606779  -0.7834089   0.0635067   0.2523065  -0.8403415
    4  -0.0018498   0.0215567   0.1684490   0.0047299   0.0378351   0.2132303
    5   0.0141306   0.0901161   0.0061782   0.0221333   0.1102342   0.0710213
    6   0.0635067   0.2523065  -0.8403415   0.0662108   0.2606779  -0.7834090
    7  -0.0047877  -0.0311153   0.3036710  -0.0198921  -0.0677760   0.2224873
    8  -0.0187512  -0.0768390   0.7507807  -0.0576219  -0.1722505   0.5143389
    9  -0.1413250  -0.5266445   2.7607044  -0.1723310  -0.6042745   2.4357964
   10  -0.0198921  -0.0677760   0.2224873  -0.0047877  -0.0311153   0.3036710
   11  -0.0576219  -0.1722505   0.5143389  -0.0187512  -0.0768390   0.7507807
   12  -0.1723310  -0.6042745   2.4357964  -0.1413250  -0.5266445   2.7607045
   13   0.0247840   0.0217877  -0.0545859   0.0043799  -0.0263831  -0.1271126
   14   0.0145715  -0.0303114  -0.1198323  -0.0272814  -0.1297917  -0.2878691
   15   0.2503381   0.8061490  -5.1991631   0.2329778   0.7625720  -5.1585424
   16   0.0043799  -0.0263831  -0.1271126   0.0247840   0.0217877  -0.0545859
   17  -0.0272814  -0.1297917  -0.2878690   0.0145715  -0.0303114  -0.1198323
   18   0.2329779   0.7625721  -5.1585425   0.2503381   0.8061490  -5.1991632
   19   0.0579985   0.1137740  -0.2166124   0.0356775   0.0633829  -0.2420377
   20   0.1137740   0.3034920  -0.6090383   0.0633829   0.1886191  -0.6682169
   21  -0.2166124  -0.6090383   7.1273940  -0.2420377  -0.6682169   6.8916467
   22   0.0356775   0.0633829  -0.2420377   0.0579985   0.1137740  -0.2166124
   23   0.0633829   0.1886191  -0.6682169   0.1137740   0.3034920  -0.6090383
   24  -0.2420377  -0.6682169   6.8916467  -0.2166124  -0.6090383   7.1273942
   25   0.0250491   0.0236527   0.1561466   0.0035506  -0.0223853   0.1740215
   26   0.0183085  -0.0138344   0.5050136  -0.0284289  -0.1124000   0.5807532
   27   0.1064862   0.1143485  -6.5853861   0.0671994   0.0302983  -6.3714577
   28   0.0035506  -0.0223853   0.1740215   0.0250491   0.0236527   0.1561466
   29  -0.0284289  -0.1124000   0.5807532   0.0183085  -0.0138344   0.5050136
   30   0.0671994   0.0302983  -6.3714576   0.1064862   0.1143485  -6.5853862
   31  -0.0039436  -0.0317892   0.0570266  -0.0195039  -0.0627261   0.0834591
   32  -0.0196279  -0.0956441   0.2878808  -0.0596186  -0.1770524   0.3733432
   33   0.1076761   0.6114469   3.5073132   0.0812180   0.5600212   3.7397296
   34  -0.0195039  -0.0627261   0.0834591  -0.0039436  -0.0317892   0.0570266
   35  -0.0596186  -0.1770524   0.3733432  -0.0196279  -0.0956441   0.2878808
   36   0.0812180   0.5600212   3.7397295   0.1076761   0.6114469   3.5073132
   37   0.0049564   0.0286275  -0.1950507  -0.0004527   0.0212448  -0.1961037
   38   0.0286275   0.1287065  -0.9267108   0.0212448   0.1232078  -0.9239086
   39  -0.1950507  -0.9267108  -0.1033003  -0.1961037  -0.9239087  -0.3039241
   40  -0.0004527   0.0212448  -0.1961037   0.0049564   0.0286275  -0.1950507
   41   0.0212448   0.1232078  -0.9239086   0.0286275   0.1287065  -0.9267108
   42  -0.1961037  -0.9239087  -0.3039240  -0.1950507  -0.9267108  -0.1033002
   43   0.0017814   0.0057888   0.1475292   0.0054007   0.0187115   0.1096232
   44   0.0001168  -0.0103010   0.6608040   0.0102268   0.0223651   0.5676527
   45   0.1773075   0.8083151  -1.9211266   0.1930162   0.8488354  -1.8328492
   46   0.0054007   0.0187115   0.1096232   0.0017814   0.0057888   0.1475292
   47   0.0102268   0.0223651   0.5676527   0.0001168  -0.0103010   0.6608041
   48   0.1930162   0.8488354  -1.8328493   0.1773075   0.8083151  -1.9211267
   49  -0.0079918  -0.0349587   0.1306807  -0.0012945  -0.0161757   0.0809162
   50  -0.0306210  -0.1194734   0.4070660  -0.0090847  -0.0612646   0.2576786
   51  -0.1248875  -0.5266724   2.2079555  -0.1028117  -0.4693108   1.9595453
   52  -0.0012945  -0.0161757   0.0809162  -0.0079918  -0.0349587   0.1306807
   53  -0.0090847  -0.0612646   0.2576786  -0.0306210  -0.1194734   0.4070660
   54  -0.1028117  -0.4693108   1.9595453  -0.1248875  -0.5266724   2.2079556
   55  -0.0007790   0.0011392  -0.3394910   0.0033643   0.0121302  -0.3688191
   56   0.0055447   0.0352629  -0.6705632   0.0118426   0.0515126  -0.7147972
   57   0.0410338   0.1855437  -1.1689943   0.0495798   0.2057823  -1.2097141
   58   0.0033643   0.0121302  -0.3688191  -0.0007790   0.0011392  -0.3394910
   59   0.0118426   0.0515126  -0.7147972   0.0055447   0.0352629  -0.6705632
   60   0.0495798   0.2057823  -1.2097141   0.0410338   0.1855437  -1.1689944
           25          26          27          28          29          30
    1   0.0019959  -0.0061719  -0.3683953   0.0054433   0.0091838  -0.3308999
    2   0.0020773  -0.0253039  -0.4277973   0.0088425   0.0010677  -0.3687057
    3  -0.0229571  -0.1168020   0.0870641  -0.0110225  -0.0792726   0.1536466
    4   0.0054433   0.0091838  -0.3308999   0.0019959  -0.0061719  -0.3683953
    5   0.0088425   0.0010677  -0.3687057   0.0020773  -0.0253039  -0.4277973
    6  -0.0110225  -0.0792726   0.1536466  -0.0229571  -0.1168020   0.0870642
    7  -0.0033249  -0.0015490  -0.1895673  -0.0008555   0.0174371  -0.1316855
    8  -0.0002289   0.0100340  -0.4712159   0.0133769   0.0804759  -0.2860060
    9   0.0375995   0.1921676  -1.4367479   0.0770583   0.3352403  -1.1177274
   10  -0.0008555   0.0174371  -0.1316855  -0.0033249  -0.0015490  -0.1895673
   11   0.0133769   0.0804759  -0.2860060  -0.0002289   0.0100340  -0.4712159
   12   0.0770583   0.3352403  -1.1177274   0.0375995   0.1921676  -1.4367480
   13  -0.0038209  -0.0155329   0.1512229  -0.0101035  -0.0185539   0.1806732
   14  -0.0169955  -0.0297746   0.4949588  -0.0249500  -0.0212560   0.5805891
   15  -0.1097436  -0.4381446   3.7787455  -0.1292996  -0.4860473   3.6834504
   16  -0.0101035  -0.0185539   0.1806732  -0.0038209  -0.0155329   0.1512229
[...]
   34  -0.3244069  -0.5017941  -0.4846473  -0.5529845  -0.6434501  -0.5608151
   35  -0.5101693  -0.7188937  -0.6726068  -0.6496742  -0.7854127  -0.7139002
   36  -0.4896337  -0.6724137  -0.6268403  -0.5636291  -0.7128567  -0.6390128
   37   0.1063042  -0.8404614  -0.6615106  -0.6348211  -0.7192677  -0.5777716
   38  -0.8404614  -0.9436739  -0.8058153  -0.7192677  -0.9002424  -0.7637137
   39  -0.6615106  -0.8058153  -0.6913686  -0.5777716  -0.7637137  -0.6795351
   40  -0.6348211  -0.7192677  -0.5777716   0.1063042  -0.8404614  -0.6615106
   41  -0.7192677  -0.9002424  -0.7637137  -0.8404614  -0.9436739  -0.8058153
   42  -0.5777716  -0.7637137  -0.6795351  -0.6615106  -0.8058153  -0.6913686
   43  -0.5504254  -0.6394620  -0.5572696  -0.3249943  -0.5005172  -0.4815628
   44  -0.6486063  -0.7817607  -0.7074378  -0.5104727  -0.7167619  -0.6667573
   45  -0.5651928  -0.7121002  -0.6319397  -0.4908912  -0.6714785  -0.6200514
   46  -0.3249943  -0.5005172  -0.4815628  -0.5504254  -0.6394620  -0.5572696
   47  -0.5104727  -0.7167619  -0.6667573  -0.6486063  -0.7817607  -0.7074378
   48  -0.4908912  -0.6714785  -0.6200514  -0.5651928  -0.7121002  -0.6319397
   49  -0.0677467  -0.2463906  -0.3462449   0.0035519  -0.1537463  -0.2930392
   50  -0.2417591  -0.4169422  -0.4809126  -0.1526393  -0.3462350  -0.4468593
   51  -0.3520375  -0.4902639  -0.4860294  -0.3003727  -0.4555524  -0.4744547
   52   0.0035519  -0.1537463  -0.2930392  -0.0677467  -0.2463906  -0.3462449
   53  -0.1526393  -0.3462350  -0.4468594  -0.2417591  -0.4169422  -0.4809126
   54  -0.3003727  -0.4555524  -0.4744547  -0.3520375  -0.4902639  -0.4860294
   55  -0.0060189  -0.0369797  -0.1446273   0.0100187  -0.0101491  -0.1208108
   56  -0.0399941  -0.1273619  -0.2426952  -0.0118278  -0.0905699  -0.2218514
   57  -0.1616274  -0.2607099  -0.3116709  -0.1335436  -0.2366178  -0.3019567
   58   0.0100187  -0.0101491  -0.1208108  -0.0060189  -0.0369797  -0.1446273
   59  -0.0118278  -0.0905699  -0.2218514  -0.0399941  -0.1273619  -0.2426952
   60  -0.1335436  -0.2366178  -0.3019567  -0.1616274  -0.2607099  -0.3116709
           43          44          45          46          47          48
    1  -0.0013793  -0.0005806  -0.0002832  -0.0007873  -0.0006345  -0.0005939
    2  -0.0010635  -0.0004012  -0.0011371  -0.0005696  -0.0005557  -0.0013792
    3  -0.0009913  -0.0017334  -0.0095949  -0.0008425  -0.0017209  -0.0092432
    4  -0.0007873  -0.0006345  -0.0005939  -0.0013793  -0.0005806  -0.0002832
    5  -0.0005696  -0.0005557  -0.0013792  -0.0010635  -0.0004012  -0.0011371
    6  -0.0008425  -0.0017209  -0.0092432  -0.0009913  -0.0017334  -0.0095949
    7   0.0015806   0.0017790  -0.0005473   0.0017748   0.0011009  -0.0008721
    8   0.0009320   0.0009092  -0.0059244   0.0008571   0.0002664  -0.0056714
    9  -0.0018716  -0.0069524  -0.0303317  -0.0016937  -0.0063879  -0.0289622
   10   0.0017748   0.0011009  -0.0008721   0.0015806   0.0017790  -0.0005473
   11   0.0008571   0.0002664  -0.0056714   0.0009320   0.0009092  -0.0059244
   12  -0.0016937  -0.0063879  -0.0289622  -0.0018716  -0.0069524  -0.0303317
   13   0.0007801  -0.0000179  -0.0102632  -0.0006412  -0.0013051  -0.0087429
   14  -0.0000179  -0.0017834  -0.0303637  -0.0013051  -0.0021528  -0.0273688
   15  -0.0102632  -0.0303637  -0.0808732  -0.0087429  -0.0273688  -0.0774077
   16  -0.0006412  -0.0013051  -0.0087429   0.0007801  -0.0000179  -0.0102632
   17  -0.0013051  -0.0021528  -0.0273688  -0.0000179  -0.0017834  -0.0303637
   18  -0.0087429  -0.0273688  -0.0774077  -0.0102632  -0.0303637  -0.0808732
   19  -0.0026813  -0.0036313  -0.0492027  -0.0052312  -0.0026470  -0.0403659
   20  -0.0016392  -0.0191771  -0.1033404  -0.0021627  -0.0138732  -0.0933458
   21  -0.0469440  -0.1016899  -0.1779898  -0.0394512  -0.0924462  -0.1714979
   22  -0.0052312  -0.0026470  -0.0403659  -0.0026813  -0.0036313  -0.0492027
   23  -0.0021627  -0.0138732  -0.0933458  -0.0016392  -0.0191771  -0.1033404
   24  -0.0394512  -0.0924462  -0.1714979  -0.0469440  -0.1016899  -0.1779898
   25   0.0057689  -0.0293831  -0.1535863   0.0081471  -0.0117454  -0.1283848
   26  -0.0290810  -0.1196767  -0.2572291  -0.0141357  -0.0927583  -0.2363497
   27  -0.1509645  -0.2554370  -0.3248014  -0.1281534  -0.2356245  -0.3153128
   28   0.0081471  -0.0117454  -0.1283848   0.0057689  -0.0293831  -0.1535863
   29  -0.0141357  -0.0927583  -0.2363497  -0.0290810  -0.1196767  -0.2572291
   30  -0.1281534  -0.2356245  -0.3153128  -0.1509645  -0.2554370  -0.3248014
   31  -0.0672154  -0.2388401  -0.3447542  -0.0133689  -0.1614818  -0.2960350
   32  -0.2381069  -0.4131024  -0.4885114  -0.1612923  -0.3525205  -0.4564767
   33  -0.3428018  -0.4854907  -0.4947631  -0.2943783  -0.4537758  -0.4834114
   34  -0.0133689  -0.1614818  -0.2960350  -0.0672154  -0.2388401  -0.3447542
   35  -0.1612923  -0.3525205  -0.4564767  -0.2381069  -0.4131024  -0.4885114
   36  -0.2943783  -0.4537758  -0.4834114  -0.3428018  -0.4854907  -0.4947631
   37  -0.5504254  -0.6486063  -0.5651928  -0.3249943  -0.5104727  -0.4908912
   38  -0.6394620  -0.7817607  -0.7121002  -0.5005172  -0.7167619  -0.6714785
   39  -0.5572696  -0.7074378  -0.6319397  -0.4815628  -0.6667573  -0.6200514
   40  -0.3249943  -0.5104727  -0.4908912  -0.5504254  -0.6486063  -0.5651928
   41  -0.5005172  -0.7167619  -0.6714785  -0.6394620  -0.7817607  -0.7121002
   42  -0.4815628  -0.6667573  -0.6200514  -0.5572696  -0.7074378  -0.6319397
   43   0.1346120  -0.8299049  -0.6556814  -0.5912576  -0.6916307  -0.5658087
   44  -0.8299049  -0.9390051  -0.7997041  -0.6916307  -0.8843748  -0.7546579
   45  -0.6556814  -0.7997041  -0.6773078  -0.5658087  -0.7546579  -0.6655893
   46  -0.5912576  -0.6916307  -0.5658087   0.1346120  -0.8299049  -0.6556814
   47  -0.6916307  -0.8843748  -0.7546579  -0.8299049  -0.9390051  -0.7997041
   48  -0.5658087  -0.7546579  -0.6655893  -0.6556814  -0.7997041  -0.6773078
   49  -0.5854352  -0.6568113  -0.5576770  -0.3279403  -0.4997324  -0.4785266
   50  -0.6619926  -0.7822723  -0.6915872  -0.5018977  -0.7057809  -0.6503197
   51  -0.5590056  -0.7039447  -0.6062261  -0.4769429  -0.6597537  -0.5951431
   52  -0.3279403  -0.4997324  -0.4785266  -0.5854352  -0.6568113  -0.5576770
   53  -0.5018977  -0.7057809  -0.6503197  -0.6619926  -0.7822723  -0.6915872
   54  -0.4769429  -0.6597537  -0.5951431  -0.5590056  -0.7039447  -0.6062261
   55  -0.0706650  -0.2335807  -0.3155731   0.0044571  -0.1479543  -0.2730176
   56  -0.2441091  -0.4070313  -0.4341738  -0.1458045  -0.3363479  -0.4069538
   57  -0.3403930  -0.4787664  -0.4483688  -0.2828906  -0.4421496  -0.4388197
   58   0.0044571  -0.1479543  -0.2730176  -0.0706650  -0.2335807  -0.3155731
   59  -0.1458045  -0.3363479  -0.4069538  -0.2441091  -0.4070313  -0.4341738
   60  -0.2828906  -0.4421496  -0.4388197  -0.3403930  -0.4787664  -0.4483688
           49          50          51          52          53          54
    1  -0.0003002  -0.0007937  -0.0008749   0.0023041   0.0012707  -0.0003450
    2  -0.0001817  -0.0007033  -0.0010569   0.0024625   0.0013738  -0.0005202
    3   0.0016740   0.0003343  -0.0035059   0.0027848   0.0012173  -0.0031406
    4   0.0023041   0.0012707  -0.0003450  -0.0003002  -0.0007937  -0.0008749
    5   0.0024625   0.0013738  -0.0005202  -0.0001817  -0.0007033  -0.0010569
    6   0.0027848   0.0012173  -0.0031406   0.0016740   0.0003343  -0.0035059
    7  -0.0046784  -0.0024182   0.0008611  -0.0013000   0.0001302   0.0014473
    8  -0.0024182  -0.0013530  -0.0007048   0.0001302   0.0005515  -0.0001549
    9   0.0008611  -0.0007048  -0.0098954   0.0014473  -0.0001549  -0.0092738
   10  -0.0013000   0.0001302   0.0014473  -0.0046784  -0.0024182   0.0008611
   11   0.0001302   0.0005515  -0.0001549  -0.0024182  -0.0013530  -0.0007048
   12   0.0014473  -0.0001549  -0.0092738   0.0008611  -0.0007048  -0.0098954
   13   0.0015806   0.0009320  -0.0018716   0.0017748   0.0008571  -0.0016937
   14   0.0017790   0.0009092  -0.0069524   0.0011009   0.0002664  -0.0063879
   15  -0.0005473  -0.0059244  -0.0303317  -0.0008721  -0.0056714  -0.0289622
   16   0.0017748   0.0008571  -0.0016937   0.0015806   0.0009320  -0.0018716
   17   0.0011009   0.0002664  -0.0063879   0.0017790   0.0009092  -0.0069524
   18  -0.0008721  -0.0056714  -0.0289622  -0.0005473  -0.0059244  -0.0303317
   19   0.0061113   0.0030938  -0.0114458  -0.0002458  -0.0018492  -0.0105931
   20   0.0031963   0.0008271  -0.0303868  -0.0024569  -0.0030176  -0.0282039
   21  -0.0093870  -0.0291410  -0.0802753  -0.0089613  -0.0272044  -0.0771357
   22  -0.0002458  -0.0018492  -0.0105931   0.0061113   0.0030938  -0.0114458
   23  -0.0024569  -0.0030176  -0.0282039   0.0031963   0.0008271  -0.0303868
   24  -0.0089613  -0.0272044  -0.0771357  -0.0093870  -0.0291410  -0.0802753
   25  -0.0031412  -0.0006677  -0.0448493  -0.0128165  -0.0064207  -0.0381877
   26  -0.0012650  -0.0166533  -0.1000156  -0.0066955  -0.0163664  -0.0918928
   27  -0.0472244  -0.1006665  -0.1766639  -0.0398763  -0.0921259  -0.1705510
   28  -0.0128165  -0.0064207  -0.0381877  -0.0031412  -0.0006677  -0.0448493
   29  -0.0066955  -0.0163664  -0.0918928  -0.0012650  -0.0166533  -0.1000156
   30  -0.0398763  -0.0921259  -0.1705510  -0.0472244  -0.1006665  -0.1766639
   31   0.0063337  -0.0288522  -0.1521265   0.0080708  -0.0143149  -0.1293999
   32  -0.0291117  -0.1195268  -0.2570572  -0.0117818  -0.0927688  -0.2371260
   33  -0.1532425  -0.2543813  -0.3220229  -0.1279117  -0.2335732  -0.3125412
   34   0.0080708  -0.0143149  -0.1293999   0.0063337  -0.0288522  -0.1521265
   35  -0.0117818  -0.0927688  -0.2371260  -0.0291117  -0.1195268  -0.2570572
   36  -0.1279117  -0.2335732  -0.3125412  -0.1532425  -0.2543813  -0.3220229
   37  -0.0677467  -0.2417591  -0.3520375   0.0035519  -0.1526393  -0.3003727
   38  -0.2463906  -0.4169422  -0.4902639  -0.1537463  -0.3462350  -0.4555524
   39  -0.3462449  -0.4809126  -0.4860294  -0.2930392  -0.4468594  -0.4744547
   40   0.0035519  -0.1526393  -0.3003727  -0.0677467  -0.2417591  -0.3520375
   41  -0.1537463  -0.3462350  -0.4555524  -0.2463906  -0.4169422  -0.4902639
   42  -0.2930392  -0.4468593  -0.4744547  -0.3462449  -0.4809126  -0.4860294
   43  -0.5854352  -0.6619926  -0.5590056  -0.3279403  -0.5018977  -0.4769429
   44  -0.6568113  -0.7822723  -0.7039447  -0.4997324  -0.7057809  -0.6597537
   45  -0.5576770  -0.6915872  -0.6062261  -0.4785266  -0.6503197  -0.5951431
   46  -0.3279403  -0.5018977  -0.4769429  -0.5854352  -0.6619926  -0.5590056
   47  -0.4997324  -0.7057809  -0.6597537  -0.6568113  -0.7822723  -0.7039447
   48  -0.4785266  -0.6503197  -0.5951431  -0.5576770  -0.6915872  -0.6062261
   49   0.1540360  -0.8131037  -0.6501979  -0.5831300  -0.6807858  -0.5623025
   50  -0.8131037  -0.9025827  -0.7667263  -0.6807858  -0.8571064  -0.7264189
   51  -0.6501979  -0.7667263  -0.6200687  -0.5623025  -0.7264189  -0.6117818
   52  -0.5831300  -0.6807858  -0.5623025   0.1540360  -0.8131037  -0.6501979
   53  -0.6807858  -0.8571064  -0.7264189  -0.8131037  -0.9025827  -0.7667263
   54  -0.5623025  -0.7264189  -0.6117818  -0.6501979  -0.7667263  -0.6200687
   55  -0.5282189  -0.5741192  -0.4941681  -0.3236964  -0.4718300  -0.4386677
   56  -0.6266237  -0.7002859  -0.5793072  -0.4968861  -0.6588351  -0.5560794
   57  -0.5532815  -0.6600391  -0.5133545  -0.4788921  -0.6260295  -0.5084803
   58  -0.3236964  -0.4718300  -0.4386677  -0.5282189  -0.5741192  -0.4941681
   59  -0.4968861  -0.6588351  -0.5560794  -0.6266237  -0.7002859  -0.5793072
   60  -0.4788921  -0.6260295  -0.5084803  -0.5532815  -0.6600391  -0.5133545
           55          56          57          58          59          60
    1  -0.0010271  -0.0012920  -0.0014584   0.0009072   0.0007004  -0.0005743
    2  -0.0012920  -0.0015679  -0.0016735   0.0007004   0.0004760  -0.0007742
    3  -0.0014584  -0.0016735  -0.0026509  -0.0005743  -0.0007742  -0.0022258
    4   0.0009072   0.0007004  -0.0005743  -0.0010271  -0.0012920  -0.0014584
    5   0.0007004   0.0004760  -0.0007742  -0.0012920  -0.0015679  -0.0016735
    6  -0.0005743  -0.0007742  -0.0022258  -0.0014584  -0.0016735  -0.0026509
    7  -0.0003002  -0.0001817   0.0016740   0.0023041   0.0024625   0.0027848
    8  -0.0007937  -0.0007033   0.0003343   0.0012707   0.0013738   0.0012173
    9  -0.0008749  -0.0010569  -0.0035059  -0.0003450  -0.0005202  -0.0031406
   10   0.0023041   0.0024625   0.0027848  -0.0003002  -0.0001817   0.0016740
   11   0.0012707   0.0013738   0.0012173  -0.0007937  -0.0007033   0.0003343
   12  -0.0003450  -0.0005202  -0.0031406  -0.0008749  -0.0010569  -0.0035059
   13  -0.0013793  -0.0010635  -0.0009913  -0.0007873  -0.0005696  -0.0008425
   14  -0.0005806  -0.0004012  -0.0017334  -0.0006345  -0.0005557  -0.0017209
   15  -0.0002832  -0.0011371  -0.0095949  -0.0005939  -0.0013792  -0.0092432
   16  -0.0007873  -0.0005696  -0.0008425  -0.0013793  -0.0010635  -0.0009913
   17  -0.0006345  -0.0005557  -0.0017209  -0.0005806  -0.0004012  -0.0017334
   18  -0.0005939  -0.0013792  -0.0092432  -0.0002832  -0.0011371  -0.0095949
   19   0.0019208   0.0016459  -0.0030087  -0.0020356  -0.0025511  -0.0044914
   20   0.0022770   0.0020514  -0.0064094  -0.0014582  -0.0018203  -0.0072834
   21  -0.0011694  -0.0060910  -0.0298000  -0.0019325  -0.0064404  -0.0287952
   22  -0.0020356  -0.0025511  -0.0044914   0.0019208   0.0016459  -0.0030087
   23  -0.0014582  -0.0018203  -0.0072834   0.0022770   0.0020514  -0.0064094
   24  -0.0019325  -0.0064404  -0.0287952  -0.0011694  -0.0060910  -0.0298000
   25   0.0061027   0.0058007  -0.0046593  -0.0010732  -0.0013916  -0.0055795
   26   0.0032248   0.0021622  -0.0266963  -0.0019682  -0.0025265  -0.0256723
   27  -0.0101578  -0.0297475  -0.0797711  -0.0088685  -0.0272721  -0.0766662
   28  -0.0010732  -0.0013916  -0.0055795   0.0061027   0.0058007  -0.0046593
   29  -0.0019682  -0.0025265  -0.0256723   0.0032248   0.0021622  -0.0266963
   30  -0.0088685  -0.0272721  -0.0766662  -0.0101578  -0.0297475  -0.0797711
   31  -0.0029656  -0.0026716  -0.0482197  -0.0053680  -0.0034666  -0.0410677
   32  -0.0038985  -0.0203136  -0.1034580  -0.0022449  -0.0145756  -0.0941103
   33  -0.0468088  -0.1000769  -0.1749783  -0.0379323  -0.0899046  -0.1683686
   34  -0.0053680  -0.0034666  -0.0410677  -0.0029656  -0.0026716  -0.0482197
   35  -0.0022449  -0.0145756  -0.0941103  -0.0038985  -0.0203136  -0.1034580
   36  -0.0379323  -0.0899046  -0.1683686  -0.0468088  -0.1000769  -0.1749783
   37  -0.0060189  -0.0399941  -0.1616274   0.0100187  -0.0118278  -0.1335436
   38  -0.0369797  -0.1273619  -0.2607099  -0.0101491  -0.0905699  -0.2366178
   39  -0.1446273  -0.2426952  -0.3116709  -0.1208108  -0.2218514  -0.3019567
   40   0.0100187  -0.0118278  -0.1335436  -0.0060189  -0.0399941  -0.1616274
   41  -0.0101491  -0.0905699  -0.2366178  -0.0369797  -0.1273619  -0.2607099
   42  -0.1208108  -0.2218514  -0.3019567  -0.1446273  -0.2426952  -0.3116709
   43  -0.0706650  -0.2441091  -0.3403930   0.0044571  -0.1458045  -0.2828906
   44  -0.2335807  -0.4070313  -0.4787664  -0.1479543  -0.3363479  -0.4421496
   45  -0.3155731  -0.4341738  -0.4483688  -0.2730176  -0.4069538  -0.4388197
   46   0.0044571  -0.1458045  -0.2828906  -0.0706650  -0.2441091  -0.3403930
   47  -0.1479543  -0.3363479  -0.4421496  -0.2335807  -0.4070313  -0.4787664
   48  -0.2730176  -0.4069538  -0.4388197  -0.3155731  -0.4341738  -0.4483688
   49  -0.5282189  -0.6266237  -0.5532815  -0.3236964  -0.4968861  -0.4788921
   50  -0.5741192  -0.7002859  -0.6600391  -0.4718300  -0.6588351  -0.6260295
   51  -0.4941681  -0.5793072  -0.5133545  -0.4386677  -0.5560794  -0.5084803
   52  -0.3236964  -0.4968861  -0.4788921  -0.5282189  -0.6266237  -0.5532815
   53  -0.4718300  -0.6588351  -0.6260295  -0.5741192  -0.7002859  -0.6600391
   54  -0.4386677  -0.5560794  -0.5084803  -0.4941681  -0.5793072  -0.5133545
   55   0.3645884  -0.6326072  -0.5630502  -0.5700012  -0.6097296  -0.5080415
   56  -0.6326072  -0.6388627  -0.5835175  -0.6097296  -0.6761963  -0.5707845
   57  -0.5630502  -0.5835175  -0.4577209  -0.5080415  -0.5707845  -0.4595901
   58  -0.5700012  -0.6097296  -0.5080415   0.3645884  -0.6326072  -0.5630502
   59  -0.6097296  -0.6761963  -0.5707845  -0.6326072  -0.6388627  -0.5835175
   60  -0.5080415  -0.5707845  -0.4595901  -0.5630502  -0.5835175  -0.4577209
 SCF time:   CPU 1.09s  wall 2.00s 
 SCF   energy in the final basis set =       -8.7081677097
 Total energy in the final basis set =       -8.7081677097
 Total wall time for computing JK: 1.03 s (10)

 --------------------------------------------------------------

                    Orbital Energies (a.u.)
 --------------------------------------------------------------

 Alpha MOs
 -- Occupied --
 -1.4144  -1.3219  -1.1787  -0.9837  -0.7459  -0.5330  -0.4706  -0.4316
 -0.2799  -0.1773
 -- Virtual --
  0.0961   0.1773   0.1841   0.2408   0.2581   0.2734   0.3211   0.3216
  0.3566   0.4039   0.4307   0.4546   0.4810   0.4957   0.6022   0.6192
  0.6379   0.7397   0.7512   0.8135   0.8579   0.9844   0.9929   1.1148
  1.1729   1.1989   1.2908   1.5160   1.9414   2.1638   2.2452   2.2598
  2.3143   2.3851   2.4049   2.4676   2.5907   2.6329   2.8007   2.8609
  3.0268   3.0415   3.2365   3.2810   3.3306   3.3366   3.4712   3.5082
  3.7534
 --------------------------------------------------------------

          Ground-State Mulliken Net Atomic Charges

     Atom                 Charge (a.u.)
  ----------------------------------------
      1 H                    -0.158650
      2 H                    -0.158650
      3 H                    -0.054739
      4 H                    -0.054739
      5 H                     0.202538
      6 H                     0.202538
      7 H                     0.048106
      8 H                     0.048106
      9 H                    -0.037254
     10 H                    -0.037254
     11 H                    -0.037254
     12 H                    -0.037254
     13 H                     0.048106
     14 H                     0.048106
     15 H                     0.202538
     16 H                     0.202538
     17 H                    -0.054739
     18 H                    -0.054739
     19 H                    -0.158650
     20 H                    -0.158650
  ----------------------------------------
  Sum of atomic charges =     0.000000

 -----------------------------------------------------------------
                    Cartesian Multipole Moments
 -----------------------------------------------------------------
    Charge (ESU x 10^10)
                 0.0000
    Dipole Moment (Debye)
         X      -0.0000      Y       0.0000      Z       0.0000
       Tot       0.0000
    Quadrupole Moments (Debye-Ang)
        XX     -24.6001     XY       0.0000     YY     -16.1366
        XZ      -0.0000     YZ       0.0000     ZZ     -41.7760
    Octopole Moments (Debye-Ang^2)
       XXX     -27.3374    XXY       0.0000    XYY      -5.9774
       YYY       0.0000    XXZ     -82.0121    XYZ       0.0000
       YYZ     -53.7966    XZZ     -15.4748    YZZ       0.0000
       ZZZ    -417.8202
    Hexadecapole Moments (Debye-Ang^3)
      XXXX     -68.8566   XXXY       0.0000   XXYY     -12.2863
      XYYY       0.0000   YYYY     -13.1582   XXXZ     -91.1377
      XXYZ       0.0000   XYYZ     -19.9276   YYYZ       0.0000
      XXZZ    -413.7217   XYZZ       0.0000   YYZZ    -274.9896
      XZZZ    -154.7707   YZZZ       0.0000   ZZZZ   -3855.4240
 -----------------------------------------------------------------
 Total job time:  1.32s(wall), 1.22s(cpu) 
 Tue Apr 25 18:08:15 2023

        *************************************************************
        *                                                           *
        *  Thank you very much for using Q-Chem.  Have a nice day.  *
        *                                                           *
        *************************************************************


